 Gaussian 16, Revision A.03,
 Gaussian 16:  EM64L-G16RevA.03 25-Dec-2016

 ---------------------
 #n B3LYP/6-31G(d) Opt
 ---------------------

 -----
 Title
 -----
 Symbolic Z-matrix:
 Charge =  0 Multiplicity = 2

 SCF Done:  E(UB3LYP) =  -421.154383331     A.U. after   20 cycles
 SCF Done:  E(UB3LYP) =  -421.247274191     A.U. after   19 cycles
 SCF Done:  E(UB3LYP) =  -421.328965666     A.U. after   27 cycles
 SCF Done:  E(UB3LYP) =  -421.339758338     A.U. after   30 cycles
 SCF Done:  E(UB3LYP) =  -421.390862940     A.U. after   21 cycles
 SCF Done:  E(UB3LYP) =  -421.403341573     A.U. after   22 cycles
 SCF Done:  E(UB3LYP) =  -421.407490910     A.U. after   20 cycles
 SCF Done:  E(UB3LYP) =  -421.411403594     A.U. after   21 cycles
 SCF Done:  E(UB3LYP) =  -421.414654129     A.U. after   18 cycles
 SCF Done:  E(UB3LYP) =  -421.417802104     A.U. after   17 cycles
 SCF Done:  E(UB3LYP) =  -421.434241676     A.U. after   13 cycles
 SCF Done:  E(UB3LYP) =  -421.434249366     A.U. after   13 cycles
 SCF Done:  E(UB3LYP) =  -421.434250552     A.U. after   12 cycles
 SCF Done:  E(UB3LYP) =  -421.434251813     A.U. after   11 cycles
 SCF Done:  E(UB3LYP) =  -421.434252464     A.U. after   12 cycles
 SCF Done:  E(UB3LYP) =  -421.434252641     A.U. after   10 cycles
 SCF Done:  E(UB3LYP) =  -421.434252775     A.U. after   11 cycles
 SCF Done:  E(UB3LYP) =  -421.434253142     A.U. after   11 cycles
 SCF Done:  E(UB3LYP) =  -421.434253233     A.U. after    9 cycles
 SCF Done:  E(UB3LYP) =  -421.434253249     A.U. after    9 cycles
 Optimization completed.
    -- Stationary point found.

                         Standard orientation:
 ---------------------------------------------------------------------
 Center     Atomic      Atomic             Coordinates (Angstroms)
 Number     Number       Type             X           Y           Z
 ---------------------------------------------------------------------
      1          6           0       -2.479306   -0.836821   -0.023832
      2          6           0       -1.765538    0.156356    0.874334
      3          6           0       -0.333086    0.313753    0.477565
      4          6           0        0.223334    1.547370    0.036578
      5          6           0       -3.520086   -0.535634   -0.798779
      6          8           0        1.410909    1.691293   -0.313046
      7          1           0       -3.938066    0.468249   -0.836004
      8          1           0       -3.998737   -1.284999   -1.423031
      9          1           0       -2.081011   -1.851040   -0.018470
     10          1           0       -2.283285    1.122935    0.851863
     11          1           0       -1.808391   -0.210975    1.913505
     12          1           0        0.332561   -0.549022    0.499478
     13          1           0       -0.450934    2.423758    0.013938
     14          1           0        2.569739    0.258809   -0.460857
     15          8           0        3.163578   -0.524794   -0.542315
     16          8           0        2.413287   -1.498340    0.237768
     17          1           0        3.004016   -1.593126    1.005128
 ---------------------------------------------------------------------

 The electronic state is 2-A.
 Alpha  occ. eigenvalues --  -19.18977 -19.16923 -19.16904 -10.27840 -10.23726
 Alpha  occ. eigenvalues --  -10.22109 -10.21169 -10.19636  -1.08803  -1.05253
 Alpha  occ. eigenvalues --   -0.86926  -0.83540  -0.76761  -0.68421  -0.58931
 Alpha  occ. eigenvalues --   -0.57577  -0.50842  -0.49557  -0.47882  -0.47085
 Alpha  occ. eigenvalues --   -0.46457  -0.43507  -0.42731  -0.41270  -0.39322
 Alpha  occ. eigenvalues --   -0.38903  -0.36783  -0.29498  -0.28291  -0.27252
 Alpha  occ. eigenvalues --   -0.25410  -0.25094
 Alpha virt. eigenvalues --   -0.00730   0.01657   0.04353   0.08978   0.09849
 Alpha virt. eigenvalues --    0.10336   0.12907   0.14068   0.15016   0.17449
 Alpha virt. eigenvalues --    0.18113   0.19309   0.23948   0.27643   0.30687

  Beta  occ. eigenvalues --  -19.18979 -19.16925 -19.16005 -10.27976 -10.22720
  Beta  occ. eigenvalues --  -10.22158 -10.21085 -10.19621  -1.08799  -1.03582
  Beta  occ. eigenvalues --   -0.86930  -0.82599  -0.75614  -0.67653  -0.58207
  Beta  occ. eigenvalues --   -0.57405  -0.50750  -0.49288  -0.47232  -0.46548
  Beta  occ. eigenvalues --   -0.46255  -0.42844  -0.41901  -0.39317  -0.38772
  Beta  occ. eigenvalues --   -0.37794  -0.36389  -0.29282  -0.27853  -0.26706
  Beta  occ. eigenvalues --   -0.25193
  Beta virt. eigenvalues --   -0.13261   0.00299   0.04290   0.04647   0.08998
  Beta virt. eigenvalues --    0.09949   0.10391   0.12959   0.14182   0.15168
  Beta virt. eigenvalues --    0.17685   0.18632   0.19672   0.24930   0.27933

 Mulliken charges and spin densities:
               1          2
     1  C   -0.046478   0.027091
     2  C   -0.370919  -0.050940
     3  C   -0.103157   0.758189
     4  C    0.204774  -0.086907
     5  C   -0.328666   0.009561
     6  O   -0.423037   0.346356
     7  H    0.142922   0.000092
     8  H    0.152801   0.002024
     9  H    0.146627  -0.000583
    10  H    0.159503   0.000964
    11  H    0.176625   0.031970
    12  H    0.208128  -0.033637
    13  H    0.120969  -0.000828
    14  H    0.443968  -0.002910
    15  O   -0.464041  -0.000224
    16  O   -0.431641  -0.000207
    17  H    0.411624  -0.000010
 Sum of Mulliken charges =  -0.00000   1.00000

 Dipole moment (field-independent basis, Debye):
    X=             -3.6652    Y=              0.0925    Z=              2.6474  Tot=              4.5223
 Quadrupole moment (field-independent basis, Debye-Ang):
   XX=            -51.3004   YY=            -47.8362   ZZ=            -46.0491
   XY=             -2.0780   XZ=              7.2220   YZ=             -1.9410

 Normal termination of Gaussian 16 at Mon Oct 15 18:12:25 2018.
