 Gaussian 09, Revision B.01,
 Gaussian 09:  EM64L-G09RevB.01 12-Aug-2010

 --------------------------------------------------------
 # m062x/6-311+g(2df,2p) opt=(ts,calcfc,noeigentest) freq
 --------------------------------------------------------

 -----------------
 CC+[O]O_C[CH2]+OO
 -----------------
 Symbolic Z-matrix:
 Charge =  0 Multiplicity = 2

 SCF Done:  E(UM062X) =  -230.668752543     A.U. after   16 cycles
 Optimization completed.
    -- Stationary point found.
 Normal termination of Gaussian 09 at Tue Sep 20 12:47:12 2016.

 ----------------------------------------------------------------------
 #N Geom=AllCheck Guess=TCheck SCRF=Check GenChk UM062X/6-311+G(2df,2p)
  Freq
 ----------------------------------------------------------------------

 CC+[O]O_C[CH2]+OO
 -----------------
 Redundant internal coordinates taken from checkpoint file:
 /gss_gpfs_scratch/r.west/QMscratch/CC+[O]O_C[CH2]+OO.chk
 Charge =  0 Multiplicity = 2

                         Standard orientation:
 ---------------------------------------------------------------------
 Center     Atomic      Atomic             Coordinates (Angstroms)
 Number     Number       Type             X           Y           Z
 ---------------------------------------------------------------------
      1          6           0        1.196493    0.751197   -0.128590
      2          6           0        1.568492   -0.685310    0.089117
      3          1           0       -0.129385    0.798533    0.039526
      4          1           0        1.297435    1.120269   -1.145193
      5          1           0        1.549588    1.458484    0.616691
      6          1           0        1.363670   -0.998956    1.112863
      7          1           0        1.022082   -1.339477   -0.589776
      8          1           0        2.636372   -0.841639   -0.092068
      9          8           0       -1.555784   -0.611850   -0.232547
     10          8           0       -1.288218    0.677525    0.195858
     11          1           0       -1.577660   -1.117940    0.588314
 ---------------------------------------------------------------------

 SCF Done:  E(UM062X) =  -230.668752543     A.U. after    1 cycles

 The electronic state is 2-A.
 Alpha  occ. eigenvalues --  -19.69249 -19.68740 -10.55452 -10.53956  -1.27406
 Alpha  occ. eigenvalues --   -0.99198  -0.87370  -0.71983  -0.62617  -0.59119
 Alpha  occ. eigenvalues --   -0.53393  -0.52777  -0.49128  -0.45981  -0.43130
 Alpha  occ. eigenvalues --   -0.40619  -0.37823  -0.29808
 Alpha virt. eigenvalues --    0.01374   0.02976   0.04131   0.04737   0.07393
 Alpha virt. eigenvalues --    0.08154   0.08202   0.11190   0.12497   0.13506
 Alpha virt. eigenvalues --    0.16138   0.18760   0.19450   0.20449   0.20828

  Beta  occ. eigenvalues --  -19.69067 -19.67795 -10.54961 -10.53978  -1.25700
  Beta  occ. eigenvalues --   -0.96697  -0.86074  -0.70384  -0.61205  -0.55675
  Beta  occ. eigenvalues --   -0.52608  -0.51193  -0.46911  -0.45181  -0.42662
  Beta  occ. eigenvalues --   -0.36954  -0.35784
  Beta virt. eigenvalues --   -0.08159   0.01441   0.02988   0.04266   0.04836
  Beta virt. eigenvalues --    0.07512   0.08280   0.08301   0.11450   0.12703
  Beta virt. eigenvalues --    0.13558   0.16266   0.18903   0.19776   0.20574

 Mulliken atomic charges:
              1
     1  C   -0.431575
     2  C   -0.443547
     3  H    0.360147
     4  H    0.152468
     5  H    0.147295
     6  H    0.151858
     7  H    0.165229
     8  H    0.141121
     9  O   -0.164889
    10  O   -0.314735
    11  H    0.236627
 Sum of Mulliken atomic charges =   0.00000

 Dipole moment (field-independent basis, Debye):
    X=              1.9669    Y=             -1.1292    Z=              1.0607  Tot=              2.5038
 Quadrupole moment (field-independent basis, Debye-Ang):
   XX=            -27.5679   YY=            -24.9407   ZZ=            -25.7048
   XY=              2.8055   XZ=             -2.0817   YZ=             -1.8324

  Exact polarizability:  65.472   3.971  42.454  -1.602  -0.505  33.998
 Approx polarizability:  64.182   4.187  48.610  -1.331   0.550  40.566

 ******    1 imaginary frequencies (negative Signs) ******

                     1                      2                      3
                     A                      A                      A
 Frequencies -- -1855.8792                27.5452               126.0076
 Red. masses --     1.1005                 2.4603                 1.6271
 Frc consts  --     2.2333                 0.0011                 0.0152
 IR Inten    --  1372.6598                 5.4533                 3.4523

                     4                      5                      6
                     A                      A                      A
 Frequencies --   154.1685               273.4560               381.5155
 Red. masses --     1.8242                 3.0612                 1.0954
 Frc consts  --     0.0255                 0.1349                 0.0939
 IR Inten    --     0.5741                 1.3661               117.7689

                     7                      8                      9
                     A                      A                      A
 Frequencies --   507.5418               571.7530               823.0063
 Red. masses --     1.3087                 3.3199                 1.0496
 Frc consts  --     0.1986                 0.6394                 0.4189
 IR Inten    --    23.7153                 0.6335                 5.7629

                    10                     11                     12
                     A                      A                      A
 Frequencies --   878.5864              1056.7735              1082.1093
 Red. masses --     1.1264                 2.7550                 8.7828
 Frc consts  --     0.5123                 1.8127                 6.0593
 IR Inten    --    18.1227                 4.7887                25.2147

                    13                     14                     15
                     A                      A                      A
 Frequencies --  1114.2277              1197.5275              1230.2782
 Red. masses --     1.2326                 1.4420                 1.3286
 Frc consts  --     0.9016                 1.2184                 1.1848
 IR Inten    --    27.8936                 3.0972                 4.2436

                    16                     17                     18
                     A                      A                      A
 Frequencies --  1398.0644              1420.1851              1462.5973
 Red. masses --     1.2072                 1.1161                 1.0595
 Frc consts  --     1.3902                 1.3263                 1.3354
 IR Inten    --     4.0387                46.6993                 5.0271

                    19                     20                     21
                     A                      A                      A
 Frequencies --  1475.9320              1484.9420              1496.6997
 Red. masses --     1.1303                 1.0376                 1.0621
 Frc consts  --     1.4507                 1.3480                 1.4018
 IR Inten    --     0.6815                 7.5863                 4.7448

                    22                     23                     24
                     A                      A                      A
 Frequencies --  3027.8374              3090.4291              3106.6659
 Red. masses --     1.0410                 1.0891                 1.0566
 Frc consts  --     5.6230                 6.1288                 6.0084
 IR Inten    --     8.5284                 3.0804                13.1793

                    25                     26                     27
                     A                      A                      A
 Frequencies --  3121.9414              3189.7868              3821.2981
 Red. masses --     1.1026                 1.1122                 1.0684
 Frc consts  --     6.3318                 6.6672                 9.1921
 IR Inten    --     6.6034                 8.9300                53.1370

 - Thermochemistry -
 -------------------
 Temperature   298.150 Kelvin.  Pressure   1.00000 Atm.
 Atom     1 has atomic number  6 and mass  12.00000

 Molecular mass:    63.04460 amu.
 Principal axes and moments of inertia in atomic units:
                           1         2         3
     Eigenvalues --   142.79990 476.09961 580.52889
           X            0.99998   0.00322  -0.00610
           Y           -0.00348   0.99908  -0.04286
           Z            0.00595   0.04288   0.99906
 This molecule is an asymmetric top.
 Rotational symmetry number  1.
 Rotational temperatures (Kelvin)      0.60654     0.18192     0.14920
 Rotational constants (GHZ):          12.63825     3.79068     3.10879
    1 imaginary frequencies ignored.
 Zero-point vibrational energy     224424.7 (Joules/Mol)
                                   53.63878 (Kcal/Mol)
 Warning -- explicit consideration of   7 degrees of freedom as
           vibrations may cause significant error
 Vibrational temperatures:     39.63   181.30   221.81   393.44   548.92
          (Kelvin)            730.24   822.62  1184.12  1264.09  1520.46
                             1556.91  1603.12  1722.97  1770.09  2011.50
                             2043.33  2104.35  2123.53  2136.50  2153.41
                             4356.38  4446.43  4469.79  4491.77  4589.39
                             5497.99

 Zero-point correction=                           0.085479 (Hartree/Particle)
 Thermal correction to Energy=                    0.091971
 Thermal correction to Enthalpy=                  0.092915
 Thermal correction to Gibbs Free Energy=         0.054439
 Sum of electronic and zero-point Energies=           -230.583274
 Sum of electronic and thermal Energies=              -230.576781
 Sum of electronic and thermal Enthalpies=            -230.575837
 Sum of electronic and thermal Free Energies=         -230.614314

                     E (Thermal)             CV                S
                      KCal/Mol        Cal/Mol-Kelvin    Cal/Mol-Kelvin
 Total                   57.713             20.275             80.981
 Electronic               0.000              0.000              1.377
 Translational            0.889              2.981             38.343
 Rotational               0.889              2.981             25.182
 Vibrational             55.935             14.313             16.079
 Vibration     1          0.593              1.984              5.999
 Vibration     2          0.611              1.927              3.006
 Vibration     3          0.620              1.898              2.620
 Vibration     4          0.676              1.722              1.574
 Vibration     5          0.751              1.510              1.033
 Vibration     6          0.863              1.233              0.640
 Vibration     7          0.928              1.092              0.501

 Optimization completed.
    -- Stationary point found.
 Normal termination of Gaussian 09 at Tue Sep 20 12:53:12 2016.
