 Gaussian 16, Revision A.03,
 Gaussian 16:  EM64L-G16RevA.03 25-Dec-2016

 ----------------------------------------------------------------------
 #N B3LYP/6-31G(d) Opt=(TS,EstmFC,noeigentest,ModRedundant,maxcycles=20
 0) Test
 ----------------------------------------------------------------------

 -----
 Title
 -----
 Symbolic Z-matrix:
 Charge =  0 Multiplicity = 2

 SCF Done:  E(UB3LYP) =  -379.550558697     A.U. after   31 cycles
 SCF Done:  E(UB3LYP) =  -379.615332268     A.U. after   32 cycles
 SCF Done:  E(UB3LYP) =  -379.676031478     A.U. after   27 cycles
 SCF Done:  E(UB3LYP) =  -379.724206129     A.U. after   23 cycles
 SCF Done:  E(UB3LYP) =  -379.764990252     A.U. after   21 cycles
 SCF Done:  E(UB3LYP) =  -379.787332803     A.U. after   23 cycles
 SCF Done:  E(UB3LYP) =  -379.798203806     A.U. after   23 cycles
 SCF Done:  E(UB3LYP) =  -379.809931027     A.U. after   23 cycles
 SCF Done:  E(UB3LYP) =  -379.816694105     A.U. after   21 cycles
 SCF Done:  E(UB3LYP) =  -379.821024457     A.U. after   22 cycles
 SCF Done:  E(UB3LYP) =  -379.833589913     A.U. after   14 cycles
 SCF Done:  E(UB3LYP) =  -379.833592553     A.U. after   14 cycles
 SCF Done:  E(UB3LYP) =  -379.833594487     A.U. after   18 cycles
 SCF Done:  E(UB3LYP) =  -379.833596496     A.U. after   14 cycles
 SCF Done:  E(UB3LYP) =  -379.833599752     A.U. after   20 cycles
 SCF Done:  E(UB3LYP) =  -379.833602255     A.U. after   15 cycles
 SCF Done:  E(UB3LYP) =  -379.833605284     A.U. after   19 cycles
 SCF Done:  E(UB3LYP) =  -379.833607921     A.U. after   16 cycles
 SCF Done:  E(UB3LYP) =  -379.833610165     A.U. after   15 cycles
 SCF Done:  E(UB3LYP) =  -379.833610445     A.U. after   11 cycles
 Optimization completed.
    -- Stationary point found.

                         Standard orientation:
 ---------------------------------------------------------------------
 Center     Atomic      Atomic             Coordinates (Angstroms)
 Number     Number       Type             X           Y           Z
 ---------------------------------------------------------------------
      1          6           0       -0.821966    1.388903    0.105241
      2          6           0       -2.000155    0.780448   -0.009868
      3          1           0       -0.789136    2.471263    0.143966
      4          1           0        0.105465    0.833543    0.166739
      5          8           0       -2.256486   -0.564264   -0.101042
      6          1           0       -2.956596    1.294193   -0.074845
      7          8           0       -1.050128   -1.337959    0.072962
      8          1           0       -0.623960   -1.235996   -0.801613
      9          8           0        2.279615   -0.467425    0.309945
     10          8           0        3.171837    0.314437   -0.294872
     11          1           0        4.038248    0.062583    0.097562
 ---------------------------------------------------------------------

 The electronic state is 2-A.
 Alpha  occ. eigenvalues --  -19.28555 -19.24629 -19.22420 -19.20728 -10.23744
 Alpha  occ. eigenvalues --  -10.16508  -1.20562  -1.13165  -0.92518  -0.88167
 Alpha  occ. eigenvalues --   -0.73830  -0.59756  -0.57158  -0.51217  -0.50029
 Alpha  occ. eigenvalues --   -0.48797  -0.48762  -0.45944  -0.38993  -0.37671
 Alpha  occ. eigenvalues --   -0.35300  -0.31008  -0.30514  -0.29465  -0.22763
 Alpha virt. eigenvalues --    0.01986   0.03162   0.04463   0.09052   0.10531
 Alpha virt. eigenvalues --    0.12851   0.17189   0.19088   0.28397   0.36285
 Alpha virt. eigenvalues --    0.50893   0.55029   0.60385   0.64051   0.64705

  Beta  occ. eigenvalues --  -19.27703 -19.22630 -19.22420 -19.20728 -10.23744
  Beta  occ. eigenvalues --  -10.16507  -1.17838  -1.13165  -0.92518  -0.83997
  Beta  occ. eigenvalues --   -0.73828  -0.59754  -0.55651  -0.51185  -0.48791
  Beta  occ. eigenvalues --   -0.47277  -0.45904  -0.42121  -0.38991  -0.37642
  Beta  occ. eigenvalues --   -0.35298  -0.29539  -0.28528  -0.22763
  Beta virt. eigenvalues --   -0.12610   0.02009   0.03630   0.04467   0.09192
  Beta virt. eigenvalues --    0.12233   0.12981   0.17275   0.19145   0.28502
  Beta virt. eigenvalues --    0.36290   0.50896   0.55030   0.60402   0.64062

 Mulliken charges and spin densities:
               1          2
     1  C   -0.404640   0.000797
     2  C    0.154625   0.000091
     3  H    0.140454   0.000003
     4  H    0.171717  -0.001865
     5  O   -0.268784   0.000032
     6  H    0.152939   0.000032
     7  O   -0.380216   0.000036
     8  H    0.415000  -0.000087
     9  O   -0.146146   0.740740
    10  O   -0.268732   0.271784
    11  H    0.433784  -0.011562
 Sum of Mulliken charges =  -0.00000   1.00000

 Dipole moment (field-independent basis, Debye):
    X=              3.3651    Y=              1.0378    Z=             -1.0658  Tot=              3.6793
 Quadrupole moment (field-independent basis, Debye-Ang):
   XX=            -18.9046   YY=            -34.7415   ZZ=            -35.1147
   XY=             -4.0044   XZ=              2.2182   YZ=              2.4720

 1\1\GINC-C0165\FTS\UB3LYP\6-31G(d)\C2H5O4(2)\DINIUS.AB\24-Oct-2018\0\\
 #N B3LYP/6-31G(d) Opt=(TS,EstmFC,noeigentest,ModRedundant,maxcycles=20
 0) Test\\Title\\0,2\C,-31.0052530117,-14.168125886,-2.913846631\C,-31.
 3389865563,-13.6907384221,-1.7170511618\H,-29.9566911959,-14.276923684
 5,-3.164370698\H,-31.7514504601,-14.4563417422,-3.6435425534\O,-32.594
 3418604,-13.4535822209,-1.2169417033\H,-30.6269845368,-13.388613258,-0
 .9523887418\O,-33.614409562,-13.9155565852,-2.1281060858\H,-33.6146394
 344,-13.2039328371,-2.7992920408\O,-33.4998234031,-15.1311327764,-5.35

 Normal termination of Gaussian 16 at Wed Oct 24 17:40:12 2018.
