 Gaussian 16, Revision A.03,
 Gaussian 16:  EM64L-G16RevA.03 25-Dec-2016

 ----------------------------------------------------------------------
 #m062x/6-311+g(2df,2p) Opt=(ModRedun,Loose,maxcycle=1000) Int(Grid=SG1
 ) freq
 ----------------------------------------------------------------------

 -----
 Title
 -----
 Symbolic Z-matrix:
 Charge =  0 Multiplicity = 2

 SCF Done:  E(UM062X) =  -379.826710328     A.U. after   18 cycles
 SCF Done:  E(UM062X) =  -379.828854273     A.U. after   17 cycles
 SCF Done:  E(UM062X) =  -379.824888210     A.U. after   19 cycles
 SCF Done:  E(UM062X) =  -379.828535846     A.U. after   16 cycles
 SCF Done:  E(UM062X) =  -379.829879991     A.U. after   15 cycles
 SCF Done:  E(UM062X) =  -379.830217559     A.U. after   15 cycles
 SCF Done:  E(UM062X) =  -379.830826260     A.U. after   16 cycles
 SCF Done:  E(UM062X) =  -379.830863960     A.U. after   16 cycles
 SCF Done:  E(UM062X) =  -379.831131359     A.U. after   15 cycles
 SCF Done:  E(UM062X) =  -379.831713450     A.U. after   15 cycles
 SCF Done:  E(UM062X) =  -379.834960456     A.U. after   16 cycles
 SCF Done:  E(UM062X) =  -379.834957670     A.U. after   16 cycles
 SCF Done:  E(UM062X) =  -379.835075941     A.U. after    9 cycles
 SCF Done:  E(UM062X) =  -379.835237300     A.U. after   15 cycles
 SCF Done:  E(UM062X) =  -379.835303490     A.U. after   15 cycles
 SCF Done:  E(UM062X) =  -379.835364371     A.U. after   14 cycles
 SCF Done:  E(UM062X) =  -379.835376727     A.U. after   14 cycles
 SCF Done:  E(UM062X) =  -379.835405774     A.U. after   15 cycles
 SCF Done:  E(UM062X) =  -379.835393039     A.U. after   14 cycles
 Optimization completed.
    -- Stationary point found.
 Normal termination of Gaussian 16 at Fri Oct 26 12:23:10 2018.

 ----------------------------------------------------------------------
 #N Geom=AllCheck Guess=TCheck SCRF=Check GenChk UM062X/6-311+G(2df,2p)
  Freq
 ----------------------------------------------------------------------

 Structure from the checkpoint file:  "/scratch/dinius.ab/QMscratch/Gau-24724.chk"
 -----
 Title
 -----
 Charge =  0 Multiplicity = 2

                         Standard orientation:
 ---------------------------------------------------------------------
 Center     Atomic      Atomic             Coordinates (Angstroms)
 Number     Number       Type             X           Y           Z
 ---------------------------------------------------------------------
      1          6           0        1.450683    1.150121   -0.691050
      2          6           0        1.227824    0.618468    0.499409
      3          1           0        1.742014    2.186636   -0.744052
      4          1           0        1.378190    0.578919   -1.601098
      5          8           0        0.854009   -0.652239    0.797358
      6          1           0        1.313284    1.165054    1.429800
      7          8           0        0.746057   -1.443249   -0.364257
      8          1           0       -0.180523   -1.288020   -0.606835
      9          8           0       -1.833385   -0.147342   -0.647621
     10          8           0       -1.972120    0.448215    0.501433
     11          1           0       -2.680490    1.102806    0.376738
 ---------------------------------------------------------------------

 SCF Done:  E(UM062X) =  -379.835393039     A.U. after    1 cycles

 The electronic state is 2-A.
 Alpha  occ. eigenvalues --  -19.77799 -19.73971 -19.70310 -19.67692 -10.59534
 Alpha  occ. eigenvalues --  -10.52046  -1.37716  -1.28056  -1.04324  -1.01736
 Alpha  occ. eigenvalues --   -0.84551  -0.68802  -0.68598  -0.62899  -0.61482
 Alpha  occ. eigenvalues --   -0.59123  -0.58544  -0.55057  -0.47259  -0.45015
 Alpha  occ. eigenvalues --   -0.43694  -0.41421  -0.41090  -0.38250  -0.29824
 Alpha virt. eigenvalues --    0.01514   0.03481   0.03827   0.04921   0.05428
 Alpha virt. eigenvalues --    0.06798   0.08198   0.09071   0.09859   0.12463
 Alpha virt. eigenvalues --    0.13262   0.15182   0.16417   0.17595   0.18402

  Beta  occ. eigenvalues --  -19.77011 -19.72516 -19.70309 -19.67694 -10.59533
  Beta  occ. eigenvalues --  -10.52046  -1.34362  -1.28053  -1.04293  -0.96943
  Beta  occ. eigenvalues --   -0.84548  -0.68708  -0.66694  -0.60467  -0.59100
  Beta  occ. eigenvalues --   -0.57396  -0.55063  -0.52324  -0.47251  -0.44945
  Beta  occ. eigenvalues --   -0.43404  -0.38721  -0.38250  -0.29819
  Beta virt. eigenvalues --   -0.09374   0.01677   0.03539   0.03968   0.04947
  Beta virt. eigenvalues --    0.05470   0.06802   0.08275   0.09124   0.10091
  Beta virt. eigenvalues --    0.12684   0.13279   0.15305   0.16529   0.17736

 Mulliken charges and spin densities:
               1          2
     1  C   -0.318213  -0.005113
     2  C   -0.139345   0.006355
     3  H    0.132722  -0.000181
     4  H    0.155580   0.001319
     5  O   -0.057691  -0.001414
     6  H    0.164802  -0.000077
     7  O   -0.256658   0.004204
     8  H    0.291376  -0.006764
     9  O   -0.177655   0.734519
    10  O   -0.075015   0.276991
    11  H    0.280097  -0.009839
 Sum of Mulliken charges =  -0.00000   1.00000

 Dipole moment (field-independent basis, Debye):
    X=             -3.1395    Y=              2.8746    Z=              0.2556  Tot=              4.2644
 Quadrupole moment (field-independent basis, Debye-Ang):
   XX=            -30.0538   YY=            -34.1432   ZZ=            -34.8006
   XY=             -1.1198   XZ=             -1.0480   YZ=              2.4746

  Exact polarizability:  42.306   1.761  49.628  -2.440   0.693  50.179
 Approx polarizability:  44.723   1.106  55.874  -2.637   1.007  66.348

                      1                      2                      3
                      A                      A                      A
 Frequencies --     57.0234                97.8975               106.0119
 Red. masses --      5.1986                 7.1182                 4.5309
 Frc consts  --      0.0100                 0.0402                 0.0300
 IR Inten    --      0.6241                 6.3421                 1.7085

                      4                      5                      6
                      A                      A                      A
 Frequencies --    141.8596               197.0629               265.6341
 Red. masses --      8.9019                 4.3925                 1.1175
 Frc consts  --      0.1055                 0.1005                 0.0465
 IR Inten    --      2.6876                 1.7655                83.1090

                      7                      8                      9
                      A                      A                      A
 Frequencies --    300.2106               352.5327               501.4468
 Red. masses --      2.5495                 4.1265                 1.0669
 Frc consts  --      0.1354                 0.3022                 0.1581
 IR Inten    --     16.4093                 0.5272               164.1254

                     10                     11                     12
                      A                      A                      A
 Frequencies --    644.4480               728.3652               894.4865
 Red. masses --      2.4647                 1.4490                 1.3831
 Frc consts  --      0.6031                 0.4529                 0.6520
 IR Inten    --      5.3934                 7.9497                61.2970

                     13                     14                     15
                      A                      A                      A
 Frequencies --    963.1019              1011.5978              1024.5979
 Red. masses --      5.7311                 1.1351                 2.4071
 Frc consts  --      3.1321                 0.6844                 1.4888
 IR Inten    --     44.8817                22.4819                 1.5311

                     16                     17                     18
                      A                      A                      A
 Frequencies --   1211.2903              1289.8576              1333.4864
 Red. masses --      3.5424                11.2261                 1.1910
 Frc consts  --      3.0623                11.0043                 1.2478
 IR Inten    --     50.3015                28.6047                 3.5627

                     19                     20                     21
                      A                      A                      A
 Frequencies --   1436.4193              1486.9101              1495.0564
 Red. masses --      1.1970                 1.1425                 1.1315
 Frc consts  --      1.4551                 1.4883                 1.4901
 IR Inten    --      5.1413                98.2607                10.5950

                     22                     23                     24
                      A                      A                      A
 Frequencies --   1737.8588              3158.2684              3208.5811
 Red. masses --      4.9917                 1.0901                 1.0638
 Frc consts  --      8.8823                 6.4067                 6.4528
 IR Inten    --    140.9589                 1.2732                 1.1648

                     25                     26                     27
                      A                      A                      A
 Frequencies --   3297.9596              3725.3288              3804.2194
 Red. masses --      1.1177                 1.0679                 1.0665
 Frc consts  --      7.1622                 8.7316                 9.0938
 IR Inten    --      0.6429                73.9171               211.5488

 - Thermochemistry -
 -------------------
 Temperature   298.150 Kelvin.  Pressure   1.00000 Atm.
 Atom     1 has atomic number  6 and mass  12.00000

 Molecular mass:    93.01878 amu.
 Principal axes and moments of inertia in atomic units:
                           1         2         3
     Eigenvalues --   395.41775 826.30268 954.56561
           X            0.99946   0.02862  -0.01599
           Y           -0.02853   0.99958   0.00578
           Z            0.01615  -0.00532   0.99986
 This molecule is an asymmetric top.
 Rotational symmetry number  1.
 Rotational temperatures (Kelvin)      0.21904     0.10482     0.09074
 Rotational constants (GHZ):           4.56414     2.18412     1.89064
 Zero-point vibrational energy     206185.4 (Joules/Mol)
                                   49.27950 (Kcal/Mol)
 Warning -- explicit consideration of   9 degrees of freedom as
           vibrations may cause significant error
 Vibrational temperatures:     82.04   140.85   152.53   204.10   283.53
          (Kelvin)            382.19   431.94   507.22   721.47   927.22
                             1047.96  1286.97  1385.69  1455.46  1474.17
                             1742.78  1855.82  1918.59  2066.69  2139.33
                             2151.05  2500.39  4544.04  4616.43  4745.03
                             5359.92  5473.42

 Zero-point correction=                           0.078532 (Hartree/Particle)
 Thermal correction to Energy=                    0.086797
 Thermal correction to Enthalpy=                  0.087741
 Thermal correction to Gibbs Free Energy=         0.044735
 Sum of electronic and zero-point Energies=           -379.756861
 Sum of electronic and thermal Energies=              -379.748596
 Sum of electronic and thermal Enthalpies=            -379.747652
 Sum of electronic and thermal Free Energies=         -379.790658

                     E (Thermal)             CV                S
                      KCal/Mol        Cal/Mol-Kelvin    Cal/Mol-Kelvin
 Total                   54.466             25.934             90.513
 Electronic               0.000              0.000              1.377
 Translational            0.889              2.981             39.502
 Rotational               0.889              2.981             27.236
 Vibrational             52.688             19.973             22.397
 Vibration     1          0.596              1.975              4.558
 Vibration     2          0.603              1.951              3.496
 Vibration     3          0.605              1.944              3.341
 Vibration     4          0.615              1.911              2.779
 Vibration     5          0.636              1.844              2.160
 Vibration     6          0.671              1.736              1.624
 Vibration     7          0.693              1.673              1.416
 Vibration     8          0.729              1.570              1.155
 Vibration     9          0.857              1.247              0.655

                           ! Non-Optimized Parameters !
 Normal termination of Gaussian 16 at Fri Oct 26 12:49:38 2018.
