 Gaussian 16, Revision A.03,
 Gaussian 16:  EM64L-G16RevA.03 25-Dec-2016

 ----------------------------------------------------------------------
 #m062x/6-311+g(2df,2p) Opt=(ts,calcfc,noeigentest,ModRedun,maxcycle=10
 00) freq
 ----------------------------------------------------------------------

 -----
 Title
 -----
 Symbolic Z-matrix:
 Charge =  0 Multiplicity = 1

 SCF Done:  E(RM062X) =  -226.435009083     A.U. after   38 cycles
 SCF Done:  E(RM062X) =  -226.488345886     A.U. after   39 cycles
 SCF Done:  E(RM062X) =  -226.511948687     A.U. after   33 cycles
 SCF Done:  E(RM062X) =  -226.503862512     A.U. after   33 cycles
 SCF Done:  E(RM062X) =  -226.518924992     A.U. after   35 cycles
 SCF Done:  E(RM062X) =  -226.522735826     A.U. after   22 cycles
 SCF Done:  E(RM062X) =  -226.523818413     A.U. after   31 cycles
 SCF Done:  E(RM062X) =  -226.527362042     A.U. after   31 cycles
 SCF Done:  E(RM062X) =  -226.529526570     A.U. after   27 cycles
 SCF Done:  E(RM062X) =  -226.529764093     A.U. after   25 cycles
 SCF Done:  E(RM062X) =  -226.531531621     A.U. after   16 cycles
 SCF Done:  E(RM062X) =  -226.531638788     A.U. after   16 cycles
 SCF Done:  E(RM062X) =  -226.531658768     A.U. after   15 cycles
 SCF Done:  E(RM062X) =  -226.531662443     A.U. after   13 cycles
 SCF Done:  E(RM062X) =  -226.531679483     A.U. after   15 cycles
 SCF Done:  E(RM062X) =  -226.531766290     A.U. after   19 cycles
 SCF Done:  E(RM062X) =  -226.531897318     A.U. after   19 cycles
 SCF Done:  E(RM062X) =  -226.531938452     A.U. after   19 cycles
 SCF Done:  E(RM062X) =  -226.531939069     A.U. after   15 cycles
 Optimization completed.
    -- Stationary point found.
 Normal termination of Gaussian 16 at Mon Oct 29 18:47:38 2018.

 ----------------------------------------------------------------------
 #N Geom=AllCheck Guess=TCheck SCRF=Check GenChk RM062X/6-311+G(2df,2p)
  Freq
 ----------------------------------------------------------------------

 Structure from the checkpoint file:  "/scratch/dinius.ab/QMscratch/Gau-44744.chk"
 -----
 Title
 -----
 Charge =  0 Multiplicity = 1

                         Standard orientation:
 ---------------------------------------------------------------------
 Center     Atomic      Atomic             Coordinates (Angstroms)
 Number     Number       Type             X           Y           Z
 ---------------------------------------------------------------------
      1          8           0        0.894535    0.667601   -0.030563
      2          8           0        0.739628   -0.605255    0.124044
      3          1           0       -0.709698    0.261309   -0.009004
      4          1           0        0.623263   -0.999130   -0.766061
      5          8           0       -1.623358    0.029881    0.003402
 ---------------------------------------------------------------------

 SCF Done:  E(RM062X) =  -226.531939069     A.U. after    1 cycles

 The electronic state is 1-A.
 Alpha  occ. eigenvalues --  -19.84207 -19.77345 -19.67380  -1.41686  -1.09946
 Alpha  occ. eigenvalues --   -1.03249  -0.72167  -0.64594  -0.63438  -0.51014
 Alpha  occ. eigenvalues --   -0.43574  -0.40585  -0.36149
 Alpha virt. eigenvalues --   -0.20581   0.01154   0.07579   0.11144   0.12215
 Alpha virt. eigenvalues --    0.16845   0.17527   0.18562   0.18936   0.20584
 Alpha virt. eigenvalues --    0.21033   0.24598   0.26715   0.32243   0.34494

 Mulliken charges:
               1
     1  O   -0.237463
     2  O    0.050540
     3  H    0.307316
     4  H    0.290855
     5  O   -0.411248
 Sum of Mulliken charges =  -0.00000

 Dipole moment (field-independent basis, Debye):
    X=              2.7266    Y=             -1.7182    Z=             -1.5293  Tot=              3.5673
 Quadrupole moment (field-independent basis, Debye-Ang):
   XX=            -22.0062   YY=            -15.8846   ZZ=            -17.0155
   XY=             -1.6460   XZ=             -1.0490   YZ=              1.7952

  Exact polarizability:  57.431   1.326  19.606  -0.515   0.756  13.936
 Approx polarizability: 146.538  11.009  26.786   0.574   0.223  15.041

 ******    2 imaginary frequencies (negative Signs) ******

                      1                      2                      3
                      A                      A                      A
 Frequencies --   -688.4519              -572.4721               266.7847
 Red. masses --      1.0958                 1.5745                 9.9140
 Frc consts  --      0.3060                 0.3040                 0.4157
 IR Inten    --     74.3528                46.0275                10.0886

                      4                      5                      6
                      A                      A                      A
 Frequencies --    456.6680               650.3936              1232.2900
 Red. masses --      1.4962                 1.3976                11.3365
 Frc consts  --      0.1838                 0.3483                10.1427
 IR Inten    --     21.1835                38.5054               324.9051

                      7                      8                      9
                      A                      A                      A
 Frequencies --   1452.8667              3611.3164              4120.7698
 Red. masses --      1.1401                 1.0673                 1.0638
 Frc consts  --      1.4179                 8.2007                10.6435
 IR Inten    --     70.2687               137.4799               222.5157

 - Thermochemistry -
 -------------------
 Temperature   298.150 Kelvin.  Pressure   1.00000 Atm.
 Atom     1 has atomic number  8 and mass  15.99491

 Molecular mass:    50.00039 amu.
 Principal axes and moments of inertia in atomic units:
                           1         2         3
     Eigenvalues --    53.17956 233.57470 281.09468
           X            0.99985  -0.01528  -0.00802
           Y            0.01572   0.99818   0.05823
           Z            0.00711  -0.05834   0.99827
 This molecule is an asymmetric top.
 Rotational symmetry number  1.
 Rotational temperatures (Kelvin)      1.62871     0.37082     0.30813
 Rotational constants (GHZ):          33.93674     7.72661     6.42040
    2 imaginary frequencies ignored.
 Zero-point vibrational energy      70526.4 (Joules/Mol)
                                   16.85621 (Kcal/Mol)
 Warning -- explicit consideration of   2 degrees of freedom as
           vibrations may cause significant error
 Vibrational temperatures:    383.84   657.04   935.77  1772.99  2090.35
          (Kelvin)           5195.88  5928.87

 Zero-point correction=                           0.026862 (Hartree/Particle)
 Thermal correction to Energy=                    0.030571
 Thermal correction to Enthalpy=                  0.031515
 Thermal correction to Gibbs Free Energy=         0.001469
 Sum of electronic and zero-point Energies=           -226.505077
 Sum of electronic and thermal Energies=              -226.501368
 Sum of electronic and thermal Enthalpies=            -226.500424
 Sum of electronic and thermal Free Energies=         -226.530470

                     E (Thermal)             CV                S
                      KCal/Mol        Cal/Mol-Kelvin    Cal/Mol-Kelvin
 Total                   19.184             10.242             63.238
 Electronic               0.000              0.000              0.000
 Translational            0.889              2.981             37.652
 Rotational               0.889              2.981             22.772
 Vibrational             17.406              4.280              2.814
 Vibration     1          0.672              1.734              1.617
 Vibration     2          0.815              1.346              0.776

 Optimization completed.
    -- Stationary point found.
 Normal termination of Gaussian 16 at Mon Oct 29 18:50:46 2018.
