 Gaussian 16, Revision A.03,
 Gaussian 16:  EM64L-G16RevA.03 25-Dec-2016

 ----------------------------------------------------------------------
 #m062x/6-311+g(2df,2p) Opt=(ModRedun,Loose,maxcycle=1000) Int(Grid=SG1
 ) freq
 ----------------------------------------------------------------------

 -----
 Title
 -----
 Symbolic Z-matrix:
 Charge =  0 Multiplicity = 1

 SCF Done:  E(RM062X) =  -226.434973381     A.U. after   33 cycles
 SCF Done:  E(RM062X) =  -226.494088108     A.U. after   36 cycles
 SCF Done:  E(RM062X) =  -226.516358873     A.U. after   23 cycles
 SCF Done:  E(RM062X) =  -226.523162334     A.U. after   25 cycles
 SCF Done:  E(RM062X) =  -226.526340267     A.U. after   19 cycles
 SCF Done:  E(RM062X) =  -226.533391026     A.U. after   18 cycles
 SCF Done:  E(RM062X) =  -226.543570848     A.U. after   16 cycles
 SCF Done:  E(RM062X) =  -226.533446694     A.U. after   18 cycles
 SCF Done:  E(RM062X) =  -226.608951194     A.U. after   14 cycles
 SCF Done:  E(RM062X) =  -226.597040411     A.U. after   13 cycles
 SCF Done:  E(RM062X) =  -226.680727672     A.U. after   12 cycles
 SCF Done:  E(RM062X) =  -226.681909059     A.U. after   11 cycles
 SCF Done:  E(RM062X) =  -226.682146207     A.U. after   10 cycles
 SCF Done:  E(RM062X) =  -226.682320997     A.U. after   10 cycles
 SCF Done:  E(RM062X) =  -226.682339398     A.U. after   11 cycles
 SCF Done:  E(RM062X) =  -226.682442513     A.U. after   11 cycles
 SCF Done:  E(RM062X) =  -226.682085541     A.U. after   12 cycles
 SCF Done:  E(RM062X) =  -226.682452281     A.U. after    9 cycles
 SCF Done:  E(RM062X) =  -226.682452257     A.U. after   10 cycles
 Optimization completed.
    -- Stationary point found.
 Normal termination of Gaussian 16 at Fri Oct 26 11:13:43 2018.

 ----------------------------------------------------------------------
 #N Geom=AllCheck Guess=TCheck SCRF=Check GenChk RM062X/6-311+G(2df,2p)
  Freq
 ----------------------------------------------------------------------

 Structure from the checkpoint file:  "/scratch/dinius.ab/QMscratch/Gau-8886.chk"
 -----
 Title
 -----
 Charge =  0 Multiplicity = 1

                         Standard orientation:
 ---------------------------------------------------------------------
 Center     Atomic      Atomic             Coordinates (Angstroms)
 Number     Number       Type             X           Y           Z
 ---------------------------------------------------------------------
      1          8           0        0.000064    0.577045   -0.065899
      2          8           0        1.127118   -0.224865    0.128330
      3          1           0       -1.363894   -0.493451   -0.768536
      4          1           0        1.351899   -0.509284   -0.767844
      5          8           0       -1.125683   -0.226838    0.129617
 ---------------------------------------------------------------------

 SCF Done:  E(RM062X) =  -226.682452257     A.U. after    1 cycles

 The electronic state is 1-A.
 Alpha  occ. eigenvalues --  -19.75927 -19.70298 -19.70296  -1.34415  -1.17072
 Alpha  occ. eigenvalues --   -0.95838  -0.65618  -0.64448  -0.57715  -0.52813
 Alpha  occ. eigenvalues --   -0.41715  -0.41342  -0.38885
 Alpha virt. eigenvalues --    0.03754   0.06242   0.06334   0.14419   0.14934
 Alpha virt. eigenvalues --    0.16071   0.18221   0.18671   0.20144   0.21146
 Alpha virt. eigenvalues --    0.22373   0.24170   0.28931   0.29817   0.36737

 Mulliken charges:
               1
     1  O   -0.015920
     2  O   -0.221058
     3  H    0.231584
     4  H    0.230255
     5  O   -0.224861
 Sum of Mulliken charges =  -0.00000

 Dipole moment (field-independent basis, Debye):
    X=             -0.0218    Y=             -1.1738    Z=             -3.0530  Tot=              3.2709
 Quadrupole moment (field-independent basis, Debye-Ang):
   XX=            -15.6696   YY=            -17.5357   ZZ=            -15.1370
   XY=             -0.0341   XZ=              0.0308   YZ=              1.9223

  Exact polarizability:  25.776  -0.006  16.225   0.010   0.798  15.428
 Approx polarizability:  27.571   0.000  18.888   0.021   0.817  17.829

                      1                      2                      3
                      A                      A                      A
 Frequencies --    381.3035               520.0222               572.9417
 Red. masses --      1.1146                 1.1826                 9.3520
 Frc consts  --      0.0955                 0.1884                 1.8087
 IR Inten    --     67.5087                94.1224                23.8058

                      4                      5                      6
                      A                      A                      A
 Frequencies --    977.6039              1028.4086              1428.6921
 Red. masses --     13.7841                15.4243                 1.0910
 Frc consts  --      7.7617                 9.6114                 1.3120
 IR Inten    --     78.6169                 0.8850                49.6269

                      7                      8                      9
                      A                      A                      A
 Frequencies --   1461.8559              3825.4611              3835.3805
 Red. masses --      1.1243                 1.0685                 1.0685
 Frc consts  --      1.4156                 9.2132                 9.2611
 IR Inten    --     32.9966                38.7505                33.4829

 - Thermochemistry -
 -------------------
 Temperature   298.150 Kelvin.  Pressure   1.00000 Atm.
 Atom     1 has atomic number  8 and mass  15.99491

 Molecular mass:    50.00039 amu.
 Principal axes and moments of inertia in atomic units:
                           1         2         3
     Eigenvalues --    32.81617 164.05770 185.18863
           X            1.00000  -0.00045   0.00019
           Y            0.00042   0.99079   0.13544
           Z           -0.00025  -0.13544   0.99079
 This molecule is an asymmetric top.
 Rotational symmetry number  1.
 Rotational temperatures (Kelvin)      2.63937     0.52795     0.46771
 Rotational constants (GHZ):          54.99548    11.00065     9.74542
 Zero-point vibrational energy      83928.0 (Joules/Mol)
                                   20.05928 (Kcal/Mol)
 Warning -- explicit consideration of   3 degrees of freedom as
           vibrations may cause significant error
 Vibrational temperatures:    548.61   748.20   824.34  1406.55  1479.65
          (Kelvin)           2055.57  2103.28  5503.99  5518.26

 Zero-point correction=                           0.031966 (Hartree/Particle)
 Thermal correction to Energy=                    0.035598
 Thermal correction to Enthalpy=                  0.036542
 Thermal correction to Gibbs Free Energy=         0.007304
 Sum of electronic and zero-point Energies=           -226.650486
 Sum of electronic and thermal Energies=              -226.646854
 Sum of electronic and thermal Enthalpies=            -226.645910
 Sum of electronic and thermal Free Energies=         -226.675149

                     E (Thermal)             CV                S
                      KCal/Mol        Cal/Mol-Kelvin    Cal/Mol-Kelvin
 Total                   22.338             10.698             61.537
 Electronic               0.000              0.000              0.000
 Translational            0.889              2.981             37.652
 Rotational               0.889              2.981             21.527
 Vibrational             20.560              4.736              2.358
 Vibration     1          0.751              1.510              1.034
 Vibration     2          0.875              1.206              0.610
 Vibration     3          0.929              1.090              0.499

 Optimization completed.
    -- Stationary point found.
 Normal termination of Gaussian 16 at Fri Oct 26 11:14:56 2018.
