 Gaussian 16, Revision A.03,
 Gaussian 16:  EM64L-G16RevA.03 25-Dec-2016

 ----------------------------------------------------------------------
 #m062x/6-311+g(2df,2p) Opt=(ModRedun,Loose,maxcycle=1000) Int(Grid=SG1
 ) freq
 ----------------------------------------------------------------------

 -----
 Title
 -----
 Symbolic Z-matrix:
 Charge =  0 Multiplicity = 2

 SCF Done:  E(UM062X) =  -691.446234196     A.U. after   23 cycles
 SCF Done:  E(UM062X) =  -691.478501613     A.U. after   21 cycles
 SCF Done:  E(UM062X) =  -691.494911854     A.U. after   21 cycles
 SCF Done:  E(UM062X) =  -691.504780302     A.U. after   20 cycles
 SCF Done:  E(UM062X) =  -691.513787381     A.U. after   22 cycles
 SCF Done:  E(UM062X) =  -691.524040252     A.U. after   20 cycles
 SCF Done:  E(UM062X) =  -691.533368771     A.U. after   23 cycles
 SCF Done:  E(UM062X) =  -691.538056240     A.U. after   22 cycles
 SCF Done:  E(UM062X) =  -691.540801559     A.U. after   21 cycles
 SCF Done:  E(UM062X) =  -691.542276078     A.U. after   22 cycles
 SCF Done:  E(UM062X) =  -691.549081613     A.U. after   16 cycles
 SCF Done:  E(UM062X) =  -691.549083065     A.U. after   17 cycles
 SCF Done:  E(UM062X) =  -691.549102600     A.U. after   16 cycles
 SCF Done:  E(UM062X) =  -691.549101353     A.U. after   17 cycles
 SCF Done:  E(UM062X) =  -691.549103801     A.U. after   14 cycles
 SCF Done:  E(UM062X) =  -691.549109596     A.U. after   16 cycles
 SCF Done:  E(UM062X) =  -691.549108018     A.U. after   15 cycles
 SCF Done:  E(UM062X) =  -691.549108454     A.U. after   14 cycles
 SCF Done:  E(UM062X) =  -691.549108144     A.U. after   15 cycles
 Optimization completed.
    -- Stationary point found.
 Normal termination of Gaussian 16 at Mon Nov 12 04:41:17 2018.

 ----------------------------------------------------------------------
 #N Geom=AllCheck Guess=TCheck SCRF=Check GenChk UM062X/6-311+G(2df,2p)
  Freq
 ----------------------------------------------------------------------

 Structure from the checkpoint file:  "/scratch/dinius.ab/QMscratch/Gau-36824.chk"
 -----
 Title
 -----
 Charge =  0 Multiplicity = 2

                         Standard orientation:
 ---------------------------------------------------------------------
 Center     Atomic      Atomic             Coordinates (Angstroms)
 Number     Number       Type             X           Y           Z
 ---------------------------------------------------------------------
      1          6           0       -5.020948    0.214729    0.073334
      2          6           0       -4.607386   -1.085680   -0.175955
      3          6           0       -3.254335   -1.386478   -0.217511
      4          6           0       -2.290962   -0.399235   -0.002653
      5          6           0       -4.072068    1.210500    0.277295
      6          6           0       -2.721507    0.908900    0.237506
      7          1           0       -6.074622    0.455699    0.099059
      8          1           0       -4.390205    2.228598    0.454282
      9          1           0       -1.994482    1.697690    0.371129
     10          1           0       -2.931654   -2.401412   -0.412421
     11          1           0       -5.337479   -1.864775   -0.342022
     12          6           0       -0.871892   -0.766957   -0.055438
     13          6           0        0.145278   -0.049410    0.425645
     14          1           0       -0.662881   -1.730317   -0.509481
     15          6           0        1.560005   -0.429401    0.322578
     16          1           0       -0.046244    0.881076    0.948661
     17          6           0        2.036268   -1.272514   -0.689135
     18          6           0        3.382043   -1.597890   -0.768568
     19          1           0        1.351036   -1.653963   -1.434461
     20          6           0        2.483303    0.095035    1.233638
     21          6           0        4.284175   -1.080377    0.153233
     22          1           0        3.728945   -2.242873   -1.563974
     23          6           0        3.829187   -0.230643    1.153291
     24          1           0        2.135701    0.769740    2.004954
     25          1           0        4.524013    0.190436    1.866301
     26          1           0        5.333949   -1.327948    0.085070
     27          8           0        1.718887    2.728758   -0.286361
     28          8           0        2.358456    2.146705   -1.260853
     29          1           0        2.458212    1.210880   -0.992953
 ---------------------------------------------------------------------

 SCF Done:  E(UM062X) =  -691.549108144     A.U. after    1 cycles

 The electronic state is 2-A.
 Alpha  occ. eigenvalues --  -19.73840 -19.69993 -10.56881 -10.55943 -10.55861
 Alpha  occ. eigenvalues --  -10.55775 -10.55762 -10.55698 -10.55653 -10.55410
 Alpha  occ. eigenvalues --  -10.55192 -10.54749 -10.54683 -10.54649 -10.54601
 Alpha  occ. eigenvalues --  -10.54555  -1.33664  -0.98720  -0.97660  -0.97320
 Alpha  occ. eigenvalues --   -0.91433  -0.87020  -0.86126  -0.85026  -0.81627
 Alpha  occ. eigenvalues --   -0.73213  -0.70697  -0.69911  -0.68166  -0.64977
 Alpha  occ. eigenvalues --   -0.64342  -0.60637  -0.59946  -0.59000  -0.56534
 Alpha  occ. eigenvalues --   -0.55358  -0.54550  -0.53523  -0.51926  -0.50892
 Alpha  occ. eigenvalues --   -0.50214  -0.49221  -0.49123  -0.46662  -0.45394
 Alpha  occ. eigenvalues --   -0.44841  -0.42524  -0.41515  -0.40597  -0.40255
 Alpha  occ. eigenvalues --   -0.38359  -0.37679  -0.37534  -0.33203  -0.32766
 Alpha  occ. eigenvalues --   -0.31535  -0.27160
 Alpha virt. eigenvalues --   -0.03844   0.00115   0.00527   0.01224   0.01264
 Alpha virt. eigenvalues --    0.01703   0.01990   0.02645   0.02865   0.04068
 Alpha virt. eigenvalues --    0.04254   0.04924   0.05003   0.05584   0.06289

  Beta  occ. eigenvalues --  -19.73062 -19.68547 -10.56881 -10.55943 -10.55861
  Beta  occ. eigenvalues --  -10.55776 -10.55762 -10.55698 -10.55654 -10.55410
  Beta  occ. eigenvalues --  -10.55192 -10.54749 -10.54683 -10.54649 -10.54601
  Beta  occ. eigenvalues --  -10.54555  -1.30314  -0.98666  -0.97341  -0.92846
  Beta  occ. eigenvalues --   -0.91432  -0.87018  -0.86126  -0.85026  -0.81624
  Beta  occ. eigenvalues --   -0.73211  -0.70696  -0.69910  -0.68164  -0.64357
  Beta  occ. eigenvalues --   -0.63064  -0.60629  -0.59919  -0.55357  -0.54559
  Beta  occ. eigenvalues --   -0.54174  -0.53517  -0.51927  -0.50893  -0.50221
  Beta  occ. eigenvalues --   -0.49230  -0.49179  -0.48622  -0.46618  -0.45378
  Beta  occ. eigenvalues --   -0.44832  -0.42523  -0.41506  -0.40595  -0.40241
  Beta  occ. eigenvalues --   -0.38312  -0.35001  -0.33200  -0.32647  -0.31535
  Beta  occ. eigenvalues --   -0.27163
  Beta virt. eigenvalues --   -0.05833  -0.03753   0.00122   0.00531   0.01225
  Beta virt. eigenvalues --    0.01266   0.01710   0.01983   0.02646   0.02869
  Beta virt. eigenvalues --    0.04083   0.04266   0.04922   0.05053   0.05602

 Mulliken charges and spin densities:
               1          2
     1  C   -0.173952  -0.000281
     2  C   -0.350323   0.000580
     3  C    0.135001   0.002563
     4  C    0.962799  -0.001193
     5  C   -0.702675   0.001781
     6  C   -0.427887   0.010061
     7  H    0.149269  -0.000010
     8  H    0.149137  -0.000005
     9  H    0.176995  -0.001169
    10  H    0.148884  -0.000004
    11  H    0.146283   0.000009
    12  C   -0.400772   0.036803
    13  C   -0.238350  -0.039235
    14  H    0.172049  -0.000007
    15  C    1.063917  -0.023243
    16  H    0.187789   0.002521
    17  C   -0.722166   0.008093
    18  C   -0.556387  -0.003209
    19  H    0.176237  -0.000124
    20  C   -0.140579  -0.001819
    21  C   -0.222523  -0.003166
    22  H    0.152920   0.000037
    23  C   -0.266030   0.006179
    24  H    0.167942   0.001047
    25  H    0.152530  -0.000014
    26  H    0.154166  -0.000002
    27  O   -0.120046   0.731247
    28  O   -0.172663   0.285509
    29  H    0.398436  -0.012949
 Sum of Mulliken charges =  -0.00000   1.00000

 Dipole moment (field-independent basis, Debye):
    X=              0.3075    Y=             -2.4102    Z=              0.1794  Tot=              2.4363
 Quadrupole moment (field-independent basis, Debye-Ang):
   XX=            -79.3903   YY=            -97.5567   ZZ=            -96.1649
   XY=             -5.6918   XZ=              1.5432   YZ=              7.8966

  Exact polarizability: 292.239 -11.492 152.595   7.578  21.774 121.272
 Approx polarizability: 313.875  -6.442 210.968   9.698  37.205 174.489

                      1                      2                      3
                      A                      A                      A
 Frequencies --     27.6783                33.7400                42.7775
 Red. masses --      8.2455                 4.4723                 4.1699
 Frc consts  --      0.0037                 0.0030                 0.0045
 IR Inten    --      0.7679                 0.2495                 0.0315

                      4                      5                      6
                      A                      A                      A
 Frequencies --     58.8916                71.4478               106.3413
 Red. masses --      4.9877                 4.5256                 5.5786
 Frc consts  --      0.0102                 0.0136                 0.0372
 IR Inten    --      0.4200                 0.1006                 0.9989

                      7                      8                      9
                      A                      A                      A
 Frequencies --    111.6293               149.4345               183.8765
 Red. masses --      6.4701                 5.3006                 5.0510
 Frc consts  --      0.0475                 0.0697                 0.1006
 IR Inten    --      2.6992                 1.2088                 0.2117

                     10                     11                     12
                      A                      A                      A
 Frequencies --    206.9030               244.5417               268.7943
 Red. masses --      4.5994                 2.4415                 5.0003
 Frc consts  --      0.1160                 0.0860                 0.2129
 IR Inten    --     12.7391                 3.8534                 0.8238

                     13                     14                     15
                      A                      A                      A
 Frequencies --    304.9532               335.0756               414.8214
 Red. masses --      1.1081                 4.2963                 2.8254
 Frc consts  --      0.0607                 0.2842                 0.2865
 IR Inten    --     55.1741                 0.4812                 0.0934

                     16                     17                     18
                      A                      A                      A
 Frequencies --    416.4874               439.2636               506.3832
 Red. masses --      2.8854                 3.4455                 3.2199
 Frc consts  --      0.2949                 0.3917                 0.4865
 IR Inten    --      0.4625                 0.8400                 4.0524

                     19                     20                     21
                      A                      A                      A
 Frequencies --    544.1397               545.5064               627.7789
 Red. masses --      6.4664                 3.2866                 6.3330
 Frc consts  --      1.1281                 0.5762                 1.4705
 IR Inten    --     14.3692                17.6100                 0.0230

                     22                     23                     24
                      A                      A                      A
 Frequencies --    630.6994               648.2191               716.3734
 Red. masses --      6.3030                 5.5809                 1.8647
 Frc consts  --      1.4772                 1.3817                 0.5638
 IR Inten    --      0.0685                 0.5942                24.1143

                     25                     26                     27
                      A                      A                      A
 Frequencies --    722.8291               771.1895               797.4746
 Red. masses --      1.8983                 1.5772                 1.8031
 Frc consts  --      0.5844                 0.5527                 0.6756
 IR Inten    --     45.1233                11.8982                59.0441

                     28                     29                     30
                      A                      A                      A
 Frequencies --    837.5617               868.9961               883.7805
 Red. masses --      5.0309                 1.3463                 1.3608
 Frc consts  --      2.0794                 0.5990                 0.6262
 IR Inten    --      0.1746                 0.5431                 1.0583

                     31                     32                     33
                      A                      A                      A
 Frequencies --    885.7687               905.7698               957.1871
 Red. masses --      2.6515                 1.6989                 1.5150
 Frc consts  --      1.2257                 0.8212                 0.8178
 IR Inten    --      0.9121                 1.4199                 2.0965

                     34                     35                     36
                      A                      A                      A
 Frequencies --    968.7314              1012.2684              1014.1140
 Red. masses --      1.4749                 1.6145                 1.8962
 Frc consts  --      0.8155                 0.9747                 1.1490
 IR Inten    --      1.0054                 2.1634                12.8069

                     37                     38                     39
                      A                      A                      A
 Frequencies --   1016.9614              1020.5713              1027.9847
 Red. masses --      4.8410                 1.6747                 1.3929
 Frc consts  --      2.9498                 1.0277                 0.8672
 IR Inten    --      0.5150                21.0172                 0.8167

                     40                     41                     42
                      A                      A                      A
 Frequencies --   1030.9015              1050.2141              1056.3646
 Red. masses --      1.2922                 1.3099                 2.1464
 Frc consts  --      0.8091                 0.8512                 1.4112
 IR Inten    --      4.1601                 0.5960                 1.8556

                     43                     44                     45
                      A                      A                      A
 Frequencies --   1059.9272              1104.7615              1108.3565
 Red. masses --      2.1071                 1.5494                 1.5314
 Frc consts  --      1.3947                 1.1142                 1.1084
 IR Inten    --      4.0754                 6.1931                 0.7311

                     46                     47                     48
                      A                      A                      A
 Frequencies --   1169.6250              1174.2827              1199.9756
 Red. masses --      1.1652                 1.1802                 1.1417
 Frc consts  --      0.9392                 0.9589                 0.9686
 IR Inten    --      0.0404                 0.1296                 0.3721

                     49                     50                     51
                      A                      A                      A
 Frequencies --   1205.3740              1219.5256              1225.5747
 Red. masses --      1.1379                 1.8760                 1.6577
 Frc consts  --      0.9741                 1.6439                 1.4670
 IR Inten    --      0.8062                 0.8151                 2.7323

                     52                     53                     54
                      A                      A                      A
 Frequencies --   1289.0198              1291.1537              1308.6017
 Red. masses --     11.5535                 4.0066                 5.3102
 Frc consts  --     11.3105                 3.9353                 5.3577
 IR Inten    --     24.6203                 0.4486                 0.3110

                     55                     56                     57
                      A                      A                      A
 Frequencies --   1325.7804              1333.8491              1351.5682
 Red. masses --      1.9135                 1.9062                 1.3259
 Frc consts  --      1.9816                 1.9982                 1.4271
 IR Inten    --      1.9093                 2.3840                 0.2016

                     58                     59                     60
                      A                      A                      A
 Frequencies --   1360.8631              1479.4207              1485.7734
 Red. masses --      1.3270                 1.7317                 2.0978
 Frc consts  --      1.4480                 2.2331                 2.7285
 IR Inten    --      1.7747                15.9307                 8.6753

                     61                     62                     63
                      A                      A                      A
 Frequencies --   1493.3521              1530.4441              1541.6882
 Red. masses --      1.4578                 2.2858                 2.4094
 Frc consts  --      1.9155                 3.1545                 3.3740
 IR Inten    --     15.9876                 8.2313                26.1710

                     64                     65                     66
                      A                      A                      A
 Frequencies --   1634.5974              1638.3577              1657.0651
 Red. masses --      5.7315                 5.6922                 5.7586
 Frc consts  --      9.0228                 9.0022                 9.3164
 IR Inten    --      0.7343                 1.8241                13.0749

                     67                     68                     69
                      A                      A                      A
 Frequencies --   1666.9349              1723.8612              3134.8567
 Red. masses --      5.8020                 6.4425                 1.0927
 Frc consts  --      9.4987                11.2800                 6.3266
 IR Inten    --     10.3789                 8.2024                 0.3908

                     70                     71                     72
                      A                      A                      A
 Frequencies --   3141.5963              3153.0198              3159.8424
 Red. masses --      1.0862                 1.0893                 1.0886
 Frc consts  --      6.3166                 6.3807                 6.4038
 IR Inten    --     18.7426                 1.6532                 4.4334

                     73                     74                     75
                      A                      A                      A
 Frequencies --   3177.0206              3178.2406              3181.1363
 Red. masses --      1.0944                 1.0884                 1.0875
 Frc consts  --      6.5085                 6.4774                 6.4840
 IR Inten    --      2.3053                 2.7060                 2.7793

                     76                     77                     78
                      A                      A                      A
 Frequencies --   3195.0448              3200.4063              3202.7235
 Red. masses --      1.0924                 1.0901                 1.0928
 Frc consts  --      6.5705                 6.5783                 6.6043
 IR Inten    --      4.5279                 2.9713                 8.0832

                     79                     80                     81
                      A                      A                      A
 Frequencies --   3216.3358              3216.9456              3629.8547
 Red. masses --      1.0965                 1.0974                 1.0662
 Frc consts  --      6.6832                 6.6910                 8.2770
 IR Inten    --      8.3880                10.5755               220.4590

 - Thermochemistry -
 -------------------
 Temperature   298.150 Kelvin.  Pressure   1.00000 Atm.
 Atom     1 has atomic number  6 and mass  12.00000

 Molecular mass:   213.09155 amu.
 Principal axes and moments of inertia in atomic units:
                           1         2         3
     Eigenvalues --  1649.626517628.047028602.51950
           X            0.99998  -0.00597   0.00128
           Y            0.00591   0.99911   0.04168
           Z           -0.00153  -0.04167   0.99913
 This molecule is an asymmetric top.
 Rotational symmetry number  1.
 Warning -- assumption of classical behavior for rotation
           may cause significant error
 Rotational temperatures (Kelvin)      0.05251     0.01135     0.01007
 Rotational constants (GHZ):           1.09403     0.23659     0.20979
 Zero-point vibrational energy     609085.7 (Joules/Mol)
                                  145.57498 (Kcal/Mol)
 Warning -- explicit consideration of  20 degrees of freedom as
           vibrations may cause significant error
 Vibrational temperatures:     39.82    48.54    61.55    84.73   102.80
          (Kelvin)            153.00   160.61   215.00   264.56   297.69
                              351.84   386.74   438.76   482.10   596.84
                              599.23   632.00   728.57   782.90   784.86
                              903.23   907.44   932.64  1030.70  1039.99
                             1109.57  1147.39  1205.06  1250.29  1271.56
                             1274.42  1303.20  1377.18  1393.79  1456.43
                             1459.08  1463.18  1468.37  1479.04  1483.24
                             1511.02  1519.87  1525.00  1589.51  1594.68
                             1682.83  1689.53  1726.50  1734.26  1754.63
                             1763.33  1854.61  1857.68  1882.79  1907.50
                             1919.11  1944.61  1957.98  2128.56  2137.70
                             2148.60  2201.97  2218.15  2351.82  2357.23
                             2384.15  2398.35  2480.25  4510.36  4520.06
                             4536.49  4546.31  4571.02  4572.78  4576.95
                             4596.96  4604.67  4608.00  4627.59  4628.47
                             5222.55

 Zero-point correction=                           0.231989 (Hartree/Particle)
 Thermal correction to Energy=                    0.247194
 Thermal correction to Enthalpy=                  0.248138
 Thermal correction to Gibbs Free Energy=         0.186241
 Sum of electronic and zero-point Energies=           -691.317120
 Sum of electronic and thermal Energies=              -691.301914
 Sum of electronic and thermal Enthalpies=            -691.300970
 Sum of electronic and thermal Free Energies=         -691.362867

                     E (Thermal)             CV                S
                      KCal/Mol        Cal/Mol-Kelvin    Cal/Mol-Kelvin
 Total                  155.116             55.636            130.273
 Electronic               0.000              0.000              1.377
 Translational            0.889              2.981             41.973
 Rotational               0.889              2.981             33.048
 Vibrational            153.339             49.674             53.875
 Vibration     1          0.593              1.984              5.989
 Vibration     2          0.594              1.983              5.596
 Vibration     3          0.595              1.980              5.126
 Vibration     4          0.596              1.974              4.494
 Vibration     5          0.598              1.968              4.113
 Vibration     6          0.605              1.944              3.335
 Vibration     7          0.607              1.940              3.240
 Vibration     8          0.618              1.903              2.679
 Vibration     9          0.631              1.862              2.289
 Vibration    10          0.641              1.830              2.071
 Vibration    11          0.660              1.772              1.770
 Vibration    12          0.673              1.731              1.604
 Vibration    13          0.696              1.664              1.390
 Vibration    14          0.716              1.605              1.236
 Vibration    15          0.778              1.438              0.910
 Vibration    16          0.780              1.434              0.904
 Vibration    17          0.799              1.385              0.829
 Vibration    18          0.862              1.236              0.642
 Vibration    19          0.899              1.153              0.556
 Vibration    20          0.901              1.150              0.554

                           ! Non-Optimized Parameters !
 Normal termination of Gaussian 16 at Tue Nov 13 00:47:04 2018.
