 Gaussian 16, Revision A.03,
 Gaussian 16:  EM64L-G16RevA.03 25-Dec-2016

 ----------------------------------------------------------------------
 #m062x/6-311+g(2df,2p) Opt=(ModRedun,Loose,maxcycle=1000) Int(Grid=SG1
 ) freq
 ----------------------------------------------------------------------

 -----
 Title
 -----
 Symbolic Z-matrix:
 Charge =  0 Multiplicity = 2

 SCF Done:  E(UM062X) =  -575.954428809     A.U. after   19 cycles
 SCF Done:  E(UM062X) =  -575.964563729     A.U. after   18 cycles
 SCF Done:  E(UM062X) =  -575.962453323     A.U. after   17 cycles
 SCF Done:  E(UM062X) =  -575.966586565     A.U. after   17 cycles
 SCF Done:  E(UM062X) =  -575.968134890     A.U. after   17 cycles
 SCF Done:  E(UM062X) =  -575.968771266     A.U. after   18 cycles
 SCF Done:  E(UM062X) =  -575.969189298     A.U. after   19 cycles
 SCF Done:  E(UM062X) =  -575.970788241     A.U. after   19 cycles
 SCF Done:  E(UM062X) =  -575.971993668     A.U. after   20 cycles
 SCF Done:  E(UM062X) =  -575.974888234     A.U. after   18 cycles
 SCF Done:  E(UM062X) =  -575.975413267     A.U. after   17 cycles
 SCF Done:  E(UM062X) =  -575.979879863     A.U. after   17 cycles
 SCF Done:  E(UM062X) =  -575.980014350     A.U. after   12 cycles
 SCF Done:  E(UM062X) =  -575.978016606     A.U. after   18 cycles
 SCF Done:  E(UM062X) =  -575.980042360     A.U. after   15 cycles
 SCF Done:  E(UM062X) =  -575.980063458     A.U. after   13 cycles
 SCF Done:  E(UM062X) =  -575.980066137     A.U. after   15 cycles
 SCF Done:  E(UM062X) =  -575.980070091     A.U. after   15 cycles
 SCF Done:  E(UM062X) =  -575.980072278     A.U. after   12 cycles
 Optimization completed.
    -- Stationary point found.
 Normal termination of Gaussian 16 at Mon Jan 14 11:54:08 2019.

 ----------------------------------------------------------------------
 #N Geom=AllCheck Guess=TCheck SCRF=Check GenChk UM062X/6-311+G(2df,2p)
  Freq
 ----------------------------------------------------------------------

 Structure from the checkpoint file:  "/scratch/dinius.ab/QMscratch/Gau-6023.chk"
 -----
 Title
 -----
 Charge =  0 Multiplicity = 2

                         Standard orientation:
 ---------------------------------------------------------------------
 Center     Atomic      Atomic             Coordinates (Angstroms)
 Number     Number       Type             X           Y           Z
 ---------------------------------------------------------------------
      1          6           0        0.924704    1.997012   -0.285345
      2          6           0       -0.190796    2.682230    0.221368
      3          6           0        0.875658    0.649143   -0.599590
      4          1           0        1.849053    2.536453   -0.451536
      5          6           0       -1.369813    2.018835    0.421272
      6          1           0       -0.113632    3.737417    0.443397
      7          6           0       -1.473839    0.634787    0.137785
      8          1           0       -2.240410    2.537153    0.800784
      9          6           0       -0.347097   -0.070955   -0.361846
     10          6           0       -0.479824   -1.460198   -0.601751
     11          6           0       -1.666674   -2.104087   -0.382472
     12          1           0        0.373094   -2.028658   -0.939267
     13          6           0       -2.689853   -0.059579    0.352292
     14          6           0       -2.789190   -1.396533    0.095373
     15          1           0       -3.541668    0.494565    0.724499
     16          1           0       -1.742529   -3.166239   -0.570013
     17          1           0       -3.723761   -1.915213    0.259515
     18          6           0        2.072772    0.000438   -1.102118
     19          1           0        2.638174   -0.385997   -0.228559
     20          1           0        2.823558    0.673457   -1.506124
     21          1           0        1.955698   -0.900249   -1.692554
     22          8           0        3.140669   -0.731606    0.541412
     23          8           0        2.200279   -1.521069    1.203403
     24          1           0        1.798554   -0.907851    1.831540
 ---------------------------------------------------------------------

 SCF Done:  E(UM062X) =  -575.980072278     A.U. after    1 cycles

 The electronic state is 2-A.
 Alpha  occ. eigenvalues --  -19.68750 -19.67645 -10.56629 -10.56293 -10.56001
 Alpha  occ. eigenvalues --  -10.55403 -10.55358 -10.55130 -10.55059 -10.54946
 Alpha  occ. eigenvalues --  -10.54889 -10.54826 -10.54613  -1.28393  -1.03211
 Alpha  occ. eigenvalues --   -0.99527  -0.93979  -0.90272  -0.84857  -0.84520
 Alpha  occ. eigenvalues --   -0.79625  -0.71816  -0.70865  -0.68201  -0.64217
 Alpha  occ. eigenvalues --   -0.60608  -0.59596  -0.58592  -0.57858  -0.53670
 Alpha  occ. eigenvalues --   -0.53012  -0.51573  -0.50182  -0.49161  -0.47969
 Alpha  occ. eigenvalues --   -0.47761  -0.46453  -0.44490  -0.42402  -0.40255
 Alpha  occ. eigenvalues --   -0.40203  -0.40049  -0.38217  -0.36870  -0.31064
 Alpha  occ. eigenvalues --   -0.30241  -0.24855
 Alpha virt. eigenvalues --   -0.02304   0.00048   0.00764   0.01649   0.01936
 Alpha virt. eigenvalues --    0.03207   0.03362   0.03686   0.04232   0.05460
 Alpha virt. eigenvalues --    0.05895   0.05983   0.07117   0.07541   0.08631

  Beta  occ. eigenvalues --  -19.68671 -19.66763 -10.56719 -10.56248 -10.56028
  Beta  occ. eigenvalues --  -10.55308 -10.55275 -10.55160 -10.55046 -10.54944
  Beta  occ. eigenvalues --  -10.54901 -10.54828 -10.54027  -1.26695  -1.01189
  Beta  occ. eigenvalues --   -0.99317  -0.93805  -0.89751  -0.84767  -0.84026
  Beta  occ. eigenvalues --   -0.78306  -0.71666  -0.70770  -0.67424  -0.62483
  Beta  occ. eigenvalues --   -0.60199  -0.59392  -0.57720  -0.56477  -0.53313
  Beta  occ. eigenvalues --   -0.52212  -0.51125  -0.49912  -0.48891  -0.47523
  Beta  occ. eigenvalues --   -0.47437  -0.46089  -0.44250  -0.41187  -0.40154
  Beta  occ. eigenvalues --   -0.39789  -0.38701  -0.37104  -0.35506  -0.30669
  Beta  occ. eigenvalues --   -0.27993
  Beta virt. eigenvalues --   -0.07455  -0.01338   0.00342   0.00773   0.01678
  Beta virt. eigenvalues --    0.02016   0.03286   0.03406   0.03903   0.04525
  Beta virt. eigenvalues --    0.05509   0.05976   0.06042   0.07148   0.08044

 Mulliken charges and spin densities:
               1          2
     1  C   -0.194006   0.197212
     2  C   -0.418617  -0.070980
     3  C    0.155691  -0.193030
     4  H    0.161510  -0.009989
     5  C   -0.072128   0.164152
     6  H    0.153340   0.003222
     7  C    0.190272  -0.099386
     8  H    0.159304  -0.010556
     9  C    0.494590   0.107179
    10  C   -0.225012  -0.029776
    11  C   -0.505009   0.031025
    12  H    0.168450   0.000929
    13  C    0.003197   0.045645
    14  C   -0.399454  -0.026945
    15  H    0.153720  -0.001289
    16  H    0.153836  -0.002239
    17  H    0.149892   0.001608
    18  C   -0.801996   0.631419
    19  H    0.538701   0.002670
    20  H    0.180802  -0.024230
    21  H    0.190047  -0.032949
    22  O   -0.313536   0.274493
    23  O   -0.170564   0.043920
    24  H    0.246973  -0.002106
 Sum of Mulliken charges =  -0.00000   1.00000

 Dipole moment (field-independent basis, Debye):
    X=             -1.8669    Y=              1.4314    Z=             -0.1294  Tot=              2.3561
 Quadrupole moment (field-independent basis, Debye-Ang):
   XX=            -78.4067   YY=            -72.0762   ZZ=            -77.2125
   XY=              5.8792   XZ=             -6.1041   YZ=              3.5114

  Exact polarizability: 179.205   6.891 169.174 -12.323   5.966  94.993
 Approx polarizability: 225.068  10.285 228.735 -23.015  12.247 130.087

 ******    4 imaginary frequencies (negative Signs) ******

                      1                      2                      3
                      A                      A                      A
 Frequencies --  -1317.0016              -624.7649              -228.9041
 Red. masses --      1.0381                 1.3332                 6.3490
 Frc consts  --      1.0609                 0.3066                 0.1960
 IR Inten    --     21.7763                 7.8436                 4.5379

                      4                      5                      6
                      A                      A                      A
 Frequencies --   -138.2769                69.1309               142.0295
 Red. masses --      6.2679                 5.6188                 3.9988
 Frc consts  --      0.0706                 0.0158                 0.0475
 IR Inten    --      0.7374                 1.8797                 0.5302

                      7                      8                      9
                      A                      A                      A
 Frequencies --    178.6583               268.7145               273.9555
 Red. masses --      3.9904                 3.9607                 3.6677
 Frc consts  --      0.0750                 0.1685                 0.1622
 IR Inten    --      0.9621                 2.0585                 0.2761

                     10                     11                     12
                      A                      A                      A
 Frequencies --    360.6959               429.9932               433.5346
 Red. masses --      1.1272                 3.1313                 3.3280
 Frc consts  --      0.0864                 0.3411                 0.3685
 IR Inten    --    155.5982                 9.2063                 4.6448

                     13                     14                     15
                      A                      A                      A
 Frequencies --    467.9237               478.9636               502.7707
 Red. masses --      4.8161                 3.2976                 2.5386
 Frc consts  --      0.6213                 0.4457                 0.3781
 IR Inten    --      5.5113                 0.8354                 4.9428

                     16                     17                     18
                      A                      A                      A
 Frequencies --    512.3584               562.4764               578.3569
 Red. masses --      5.8318                 4.2965                 4.0264
 Frc consts  --      0.9020                 0.8009                 0.7935
 IR Inten    --      0.0955                 2.4639                 7.6370

                     19                     20                     21
                      A                      A                      A
 Frequencies --    660.2564               716.0385               749.2957
 Red. masses --      3.0480                 4.9503                 1.3744
 Frc consts  --      0.7829                 1.4954                 0.4546
 IR Inten    --      0.2296                 1.6456                 0.4937

                     22                     23                     24
                      A                      A                      A
 Frequencies --    764.2905               796.8823               804.9499
 Red. masses --      1.3928                 1.6833                 3.3183
 Frc consts  --      0.4794                 0.6298                 1.2668
 IR Inten    --      1.3998                69.1295                11.8866

                     25                     26                     27
                      A                      A                      A
 Frequencies --    825.2007               882.4953               898.5258
 Red. masses --      2.1055                 3.5820                 1.6291
 Frc consts  --      0.8447                 1.6436                 0.7749
 IR Inten    --     18.4530                 4.0658                 1.9802

                     28                     29                     30
                      A                      A                      A
 Frequencies --    910.9085               933.0189               982.4425
 Red. masses --      1.5781                 1.5196                 3.3762
 Frc consts  --      0.7715                 0.7794                 1.9200
 IR Inten    --     21.2836                 2.8782                57.5558

                     31                     32                     33
                      A                      A                      A
 Frequencies --    998.4319              1010.8813              1022.1153
 Red. masses --      1.3447                 1.3701                 1.3421
 Frc consts  --      0.7898                 0.8249                 0.8261
 IR Inten    --      0.3854                 1.6978                 0.6790

                     34                     35                     36
                      A                      A                      A
 Frequencies --   1035.5934              1054.3015              1104.0744
 Red. masses --      2.6815                 2.3392                 1.8317
 Frc consts  --      1.6944                 1.5320                 1.3155
 IR Inten    --     20.6805                 4.8189                 3.1182

                     37                     38                     39
                      A                      A                      A
 Frequencies --   1114.0489              1163.9439              1174.1818
 Red. masses --      1.7793                 1.2777                 3.3186
 Frc consts  --      1.3011                 1.0199                 2.6957
 IR Inten    --      1.2436                 0.7014                 9.6596

                     40                     41                     42
                      A                      A                      A
 Frequencies --   1198.4609              1210.0215              1230.9861
 Red. masses --      1.1688                 1.8847                 1.8666
 Frc consts  --      0.9891                 1.6259                 1.6665
 IR Inten    --      1.4293                18.8332                 2.9126

                     43                     44                     45
                      A                      A                      A
 Frequencies --   1253.9762              1301.0486              1372.9655
 Red. masses --      1.8900                 1.7627                 3.2132
 Frc consts  --      1.7510                 1.7580                 3.5687
 IR Inten    --      4.3239                 0.4160                 3.2744

                     46                     47                     48
                      A                      A                      A
 Frequencies --   1399.4191              1425.7174              1429.0595
 Red. masses --      7.4726                 1.5107                 1.3037
 Frc consts  --      8.6221                 1.8093                 1.5687
 IR Inten    --      0.9196                 7.3444                18.3559

                     49                     50                     51
                      A                      A                      A
 Frequencies --   1471.9889              1482.5178              1501.9627
 Red. masses --      1.3016                 2.2076                 2.0770
 Frc consts  --      1.6617                 2.8587                 2.7606
 IR Inten    --      7.7520                 0.2835                 1.3530

                     52                     53                     54
                      A                      A                      A
 Frequencies --   1556.7913              1620.4998              1648.3394
 Red. masses --      3.1132                 6.5165                 5.4166
 Frc consts  --      4.4455                10.0824                 8.6710
 IR Inten    --     10.1224                 0.8922                 3.8621

                     55                     56                     57
                      A                      A                      A
 Frequencies --   1688.4624              3094.1838              3143.0866
 Red. masses --      6.0028                 1.0572                 1.0900
 Frc consts  --     10.0829                 5.9634                 6.3445
 IR Inten    --      0.4709                 6.7910                 4.5365

                     58                     59                     60
                      A                      A                      A
 Frequencies --   3163.1867              3174.0584              3174.7361
 Red. masses --      1.0868                 1.0899                 1.1058
 Frc consts  --      6.4067                 6.4693                 6.5665
 IR Inten    --      0.4709                 0.5116                 1.8720

                     61                     62                     63
                      A                      A                      A
 Frequencies --   3177.7892              3189.3779              3205.1302
 Red. masses --      1.0934                 1.0950                 1.0951
 Frc consts  --      6.5054                 6.5627                 6.6283
 IR Inten    --      9.7450                 6.4121                 9.1989

                     64                     65                     66
                      A                      A                      A
 Frequencies --   3224.4851              3311.6806              3840.4587
 Red. masses --      1.0923                 1.0387                 1.0683
 Frc consts  --      6.6913                 6.7120                 9.2838
 IR Inten    --      2.3693               200.3799                25.9273

 - Thermochemistry -
 -------------------
 Temperature   298.150 Kelvin.  Pressure   1.00000 Atm.
 Atom     1 has atomic number  6 and mass  12.00000

 Molecular mass:   175.07590 amu.
 Principal axes and moments of inertia in atomic units:
                           1         2         3
     Eigenvalues --  1640.259402517.392743649.63142
           X            0.99951   0.02563  -0.01821
           Y           -0.02535   0.99956   0.01539
           Z            0.01860  -0.01492   0.99972
 This molecule is an asymmetric top.
 Rotational symmetry number  1.
 Warning -- assumption of classical behavior for rotation
           may cause significant error
 Rotational temperatures (Kelvin)      0.05281     0.03441     0.02373
 Rotational constants (GHZ):           1.10028     0.71691     0.49450
    4 imaginary frequencies ignored.
 Zero-point vibrational energy     498554.7 (Joules/Mol)
                                  119.15742 (Kcal/Mol)
 Warning -- explicit consideration of  14 degrees of freedom as
           vibrations may cause significant error
 Vibrational temperatures:     99.46   204.35   257.05   386.62   394.16
          (Kelvin)            518.96   618.66   623.76   673.24   689.12
                              723.37   737.17   809.28   832.13   949.96
                             1030.22  1078.07  1099.64  1146.54  1158.14
                             1187.28  1269.71  1292.78  1310.59  1342.41
                             1413.52  1436.52  1454.43  1470.60  1489.99
                             1516.90  1588.52  1602.87  1674.66  1689.39
                             1724.32  1740.95  1771.11  1804.19  1871.92
                             1975.39  2013.45  2051.29  2056.10  2117.86
                             2133.01  2160.99  2239.88  2331.54  2371.59
                             2429.32  4451.84  4522.20  4551.12  4566.76
                             4567.74  4572.13  4588.80  4611.47  4639.31
                             4764.77  5525.56

 Zero-point correction=                           0.189889 (Hartree/Particle)
 Thermal correction to Energy=                    0.199155
 Thermal correction to Enthalpy=                  0.200099
 Thermal correction to Gibbs Free Energy=         0.154377
 Sum of electronic and zero-point Energies=           -575.790183
 Sum of electronic and thermal Energies=              -575.780917
 Sum of electronic and thermal Enthalpies=            -575.779973
 Sum of electronic and thermal Free Energies=         -575.825695

                     E (Thermal)             CV                S
                      KCal/Mol        Cal/Mol-Kelvin    Cal/Mol-Kelvin
 Total                  124.972             38.732             96.230
 Electronic               0.000              0.000              1.377
 Translational            0.889              2.981             41.387
 Rotational               0.889              2.981             31.089
 Vibrational            123.194             32.770             22.376
 Vibration     1          0.598              1.969              4.178
 Vibration     2          0.615              1.911              2.776
 Vibration     3          0.629              1.869              2.342
 Vibration     4          0.673              1.731              1.604
 Vibration     5          0.676              1.721              1.571
 Vibration     6          0.735              1.553              1.119
 Vibration     7          0.791              1.405              0.859
 Vibration     8          0.794              1.397              0.847
 Vibration     9          0.825              1.321              0.743
 Vibration    10          0.835              1.297              0.713
 Vibration    11          0.858              1.244              0.651
 Vibration    12          0.867              1.223              0.628
 Vibration    13          0.918              1.112              0.519
 Vibration    14          0.935              1.078              0.488

 Optimization completed.
    -- Stationary point found.
 Normal termination of Gaussian 16 at Mon Jan 14 21:01:50 2019.
