 Gaussian 16, Revision A.03,
 Gaussian 16:  EM64L-G16RevA.03 25-Dec-2016

 ----------------------------------------------------------------------
 #m062x/6-311+g(2df,2p) Opt=(ModRedun,Loose,maxcycle=1000) Int(Grid=SG1
 ) freq
 ----------------------------------------------------------------------

 -----
 Title
 -----
 Symbolic Z-matrix:
 Charge =  0 Multiplicity = 2

 SCF Done:  E(UM062X) =  -575.945978965     A.U. after   26 cycles
 SCF Done:  E(UM062X) =  -575.960820758     A.U. after   21 cycles
 SCF Done:  E(UM062X) =  -575.925537898     A.U. after   22 cycles
 SCF Done:  E(UM062X) =  -575.984392994     A.U. after   19 cycles
 SCF Done:  E(UM062X) =  -575.960004068     A.U. after   19 cycles
 SCF Done:  E(UM062X) =  -575.992233441     A.U. after   18 cycles
 SCF Done:  E(UM062X) =  -575.988188055     A.U. after   19 cycles
 SCF Done:  E(UM062X) =  -575.995806207     A.U. after   16 cycles
 SCF Done:  E(UM062X) =  -575.993916227     A.U. after   17 cycles
 SCF Done:  E(UM062X) =  -575.996908678     A.U. after   17 cycles
 SCF Done:  E(UM062X) =  -575.998654551     A.U. after   12 cycles
 SCF Done:  E(UM062X) =  -575.998654145     A.U. after   12 cycles
 SCF Done:  E(UM062X) =  -575.998653139     A.U. after   12 cycles
 SCF Done:  E(UM062X) =  -575.998671469     A.U. after   15 cycles
 SCF Done:  E(UM062X) =  -575.998667845     A.U. after   16 cycles
 SCF Done:  E(UM062X) =  -575.998693106     A.U. after   14 cycles
 SCF Done:  E(UM062X) =  -575.998491400     A.U. after   16 cycles
 SCF Done:  E(UM062X) =  -575.998689272     A.U. after   16 cycles
 SCF Done:  E(UM062X) =  -575.998690462     A.U. after   14 cycles
 Optimization completed.
    -- Stationary point found.
 Normal termination of Gaussian 16 at Fri Dec  7 06:25:22 2018.

 ----------------------------------------------------------------------
 #N Geom=AllCheck Guess=TCheck SCRF=Check GenChk UM062X/6-311+G(2df,2p)
  Freq
 ----------------------------------------------------------------------

 Structure from the checkpoint file:  "/scratch/dinius.ab/QMscratch/Gau-18035.chk"
 -----
 Title
 -----
 Charge =  0 Multiplicity = 2

                         Standard orientation:
 ---------------------------------------------------------------------
 Center     Atomic      Atomic             Coordinates (Angstroms)
 Number     Number       Type             X           Y           Z
 ---------------------------------------------------------------------
      1          6           0        1.090136    0.392355    0.588693
      2          6           0        0.224589   -0.678095    0.572288
      3          6           0        0.589620    1.679356    0.243475
      4          6           0       -0.720958    1.860301   -0.080017
      5          1           0        1.268296    2.522293    0.248782
      6          6           0       -1.138666   -0.523227    0.236860
      7          1           0        0.591775   -1.666799    0.822045
      8          6           0       -1.626005    0.767965   -0.092285
      9          1           0       -1.093451    2.845110   -0.331656
     10          6           0       -2.037203   -1.619205    0.222017
     11          6           0       -3.351507   -1.439508   -0.103106
     12          1           0       -1.659756   -2.602616    0.470867
     13          6           0       -3.835841   -0.152574   -0.428628
     14          1           0       -4.026886   -2.283384   -0.112767
     15          6           0       -2.992313    0.923415   -0.422725
     16          1           0       -3.359705    1.910904   -0.671570
     17          1           0       -4.878283   -0.024190   -0.685563
     18          6           0        2.513304    0.206326    0.895523
     19          1           0        3.014339   -0.078656   -0.035242
     20          1           0        2.737105   -0.644472    1.535090
     21          1           0        3.030983    1.106586    1.217936
     22          8           0        3.550705   -0.390154   -0.947115
     23          8           0        4.790879   -0.804326   -0.503845
     24          1           0        5.351968   -0.031583   -0.642803
 ---------------------------------------------------------------------

 SCF Done:  E(UM062X) =  -575.998690462     A.U. after    1 cycles

 The electronic state is 2-A.
 Alpha  occ. eigenvalues --  -19.69733 -19.68856 -10.55944 -10.55644 -10.55571
 Alpha  occ. eigenvalues --  -10.54936 -10.54920 -10.54821 -10.54805 -10.54783
 Alpha  occ. eigenvalues --  -10.54714 -10.54638 -10.54038  -1.28734  -1.01559
 Alpha  occ. eigenvalues --   -0.99100  -0.94011  -0.88551  -0.86700  -0.82918
 Alpha  occ. eigenvalues --   -0.79430  -0.71489  -0.69448  -0.68756  -0.64107
 Alpha  occ. eigenvalues --   -0.60326  -0.59787  -0.58882  -0.56293  -0.53629
 Alpha  occ. eigenvalues --   -0.52563  -0.51948  -0.49893  -0.48874  -0.47995
 Alpha  occ. eigenvalues --   -0.47017  -0.46435  -0.44204  -0.42986  -0.40281
 Alpha  occ. eigenvalues --   -0.40006  -0.39303  -0.38475  -0.35677  -0.32974
 Alpha  occ. eigenvalues --   -0.28851  -0.26037
 Alpha virt. eigenvalues --   -0.02020   0.00680   0.01057   0.01512   0.01845
 Alpha virt. eigenvalues --    0.02905   0.03058   0.03743   0.04612   0.05356
 Alpha virt. eigenvalues --    0.05821   0.06438   0.06879   0.07310   0.07849

  Beta  occ. eigenvalues --  -19.69565 -19.67747 -10.56003 -10.55639 -10.55567
  Beta  occ. eigenvalues --  -10.54933 -10.54854 -10.54808 -10.54802 -10.54770
  Beta  occ. eigenvalues --  -10.54704 -10.54641 -10.53554  -1.26736  -0.99401
  Beta  occ. eigenvalues --   -0.98461  -0.93758  -0.88312  -0.86195  -0.82746
  Beta  occ. eigenvalues --   -0.78237  -0.71356  -0.68894  -0.68670  -0.62296
  Beta  occ. eigenvalues --   -0.59708  -0.58845  -0.57687  -0.55475  -0.52493
  Beta  occ. eigenvalues --   -0.52109  -0.50905  -0.49687  -0.48753  -0.47570
  Beta  occ. eigenvalues --   -0.46747  -0.46016  -0.43327  -0.41825  -0.40104
  Beta  occ. eigenvalues --   -0.39257  -0.38293  -0.36738  -0.35040  -0.30186
  Beta  occ. eigenvalues --   -0.27415
  Beta virt. eigenvalues --   -0.08114  -0.01499   0.00911   0.01399   0.01681
  Beta virt. eigenvalues --    0.01896   0.02973   0.03148   0.03813   0.04717
  Beta virt. eigenvalues --    0.05592   0.05908   0.06502   0.06920   0.07346

 Mulliken charges and spin densities:
               1          2
     1  C    0.039577  -0.144798
     2  C   -0.109314   0.172776
     3  C   -0.406220   0.058156
     4  C   -0.289826  -0.038357
     5  H    0.156746  -0.002129
     6  C    0.347535  -0.050946
     7  H    0.166720  -0.007042
     8  C    0.490352   0.061658
     9  H    0.156998   0.002062
    10  C   -0.263107   0.047747
    11  C   -0.399663  -0.023610
    12  H    0.157891  -0.001969
    13  C   -0.348474   0.048910
    14  H    0.148446   0.001230
    15  C   -0.230991  -0.036942
    16  H    0.156606   0.001284
    17  H    0.150862  -0.003326
    18  C   -0.588728   0.477287
    19  H    0.566441  -0.000484
    20  H    0.170564  -0.019111
    21  H    0.156870  -0.018682
    22  O   -0.298176   0.409983
    23  O   -0.191513   0.068926
    24  H    0.260406  -0.002622
 Sum of Mulliken charges =  -0.00000   1.00000

 Dipole moment (field-independent basis, Debye):
    X=             -0.0558    Y=              1.5524    Z=              0.8997  Tot=              1.7952
 Quadrupole moment (field-independent basis, Debye-Ang):
   XX=            -63.8316   YY=            -70.8169   ZZ=            -82.2394
   XY=              8.3882   XZ=              4.8522   YZ=             -3.1758

  Exact polarizability: 257.893   7.415 140.472   4.010  -3.235  91.771
 Approx polarizability: 277.834  12.366 195.795  14.022  -7.581 124.377

 ******    4 imaginary frequencies (negative Signs) ******

                      1                      2                      3
                      A                      A                      A
 Frequencies --   -811.7619              -253.7895              -180.1692
 Red. masses --      1.0264                 2.5034                 5.2485
 Frc consts  --      0.3985                 0.0950                 0.1004
 IR Inten    --     25.9713                 1.3086                 6.6616

                      4                      5                      6
                      A                      A                      A
 Frequencies --    -99.1916                80.3264               130.3360
 Red. masses --      6.9722                 5.7825                 5.5306
 Frc consts  --      0.0404                 0.0220                 0.0554
 IR Inten    --      0.5953                 5.4076                 9.5448

                      7                      8                      9
                      A                      A                      A
 Frequencies --    183.7712               258.7133               267.2968
 Red. masses --      3.6507                 3.2218                 5.0111
 Frc consts  --      0.0726                 0.1271                 0.2109
 IR Inten    --      0.7323                 0.5518                30.6281

                     10                     11                     12
                      A                      A                      A
 Frequencies --    397.8493               413.4423               446.0205
 Red. masses --      3.1346                 3.4053                 1.4282
 Frc consts  --      0.2923                 0.3430                 0.1674
 IR Inten    --     14.6027                 3.0702                54.0123

                     13                     14                     15
                      A                      A                      A
 Frequencies --    455.7651               479.1340               517.4068
 Red. masses --      2.6109                 2.4395                 3.2925
 Frc consts  --      0.3195                 0.3300                 0.5193
 IR Inten    --     19.6848                24.0170                24.8116

                     16                     17                     18
                      A                      A                      A
 Frequencies --    526.4748               612.1872               634.3567
 Red. masses --      6.2148                 2.4265                 4.4885
 Frc consts  --      1.0149                 0.5358                 1.0642
 IR Inten    --      0.8566               307.0741                99.5893

                     19                     20                     21
                      A                      A                      A
 Frequencies --    644.1538               726.6020               755.2129
 Red. masses --      2.7504                 3.6974                 1.3149
 Frc consts  --      0.6724                 1.1501                 0.4419
 IR Inten    --     17.0047                10.3060                40.6288

                     22                     23                     24
                      A                      A                      A
 Frequencies --    783.1176               791.4407               827.7390
 Red. masses --      2.3776                 4.6385                 1.5290
 Frc consts  --      0.8591                 1.7119                 0.6172
 IR Inten    --      4.6365                 0.2444                39.8848

                     25                     26                     27
                      A                      A                      A
 Frequencies --    850.7327               874.3271               892.2446
 Red. masses --      1.3558                 1.6696                 1.9073
 Frc consts  --      0.5781                 0.7520                 0.8946
 IR Inten    --     51.7454                 2.3195               134.2093

                     28                     29                     30
                      A                      A                      A
 Frequencies --    916.1287               926.2800               970.7951
 Red. masses --      2.6932                 2.1017                 3.5899
 Frc consts  --      1.3318                 1.0624                 1.9934
 IR Inten    --     95.8309                26.1452                39.3670

                     31                     32                     33
                      A                      A                      A
 Frequencies --    988.8834              1006.4566              1018.2368
 Red. masses --      1.3919                 1.4658                 2.7325
 Frc consts  --      0.8019                 0.8748                 1.6692
 IR Inten    --      5.4899                10.5389                87.1717

                     34                     35                     36
                      A                      A                      A
 Frequencies --   1023.5725              1050.0408              1093.4755
 Red. masses --      1.3451                 2.2764                 1.1910
 Frc consts  --      0.8303                 1.4788                 0.8391
 IR Inten    --      1.7250                 4.8707                 4.9249

                     37                     38                     39
                      A                      A                      A
 Frequencies --   1152.4229              1164.2799              1180.7653
 Red. masses --      1.5767                 1.4450                 1.1635
 Frc consts  --      1.2337                 1.1541                 0.9557
 IR Inten    --      5.1683                 1.5349                 0.7851

                     40                     41                     42
                      A                      A                      A
 Frequencies --   1200.8247              1211.4517              1239.0586
 Red. masses --      1.4065                 2.0792                 2.3530
 Frc consts  --      1.1950                 1.7979                 2.1284
 IR Inten    --     11.1384                 4.6355                 5.8183

                     43                     44                     45
                      A                      A                      A
 Frequencies --   1285.6225              1295.9899              1394.7141
 Red. masses --      1.6699                 1.8103                 2.2852
 Frc consts  --      1.6261                 1.7915                 2.6190
 IR Inten    --      5.9002                 7.0086                 2.3607

                     46                     47                     48
                      A                      A                      A
 Frequencies --   1398.9833              1419.9669              1431.5794
 Red. masses --      2.6291                 5.8088                 1.1180
 Frc consts  --      3.0316                 6.9007                 1.3499
 IR Inten    --      2.9353                 2.2590                37.8040

                     49                     50                     51
                      A                      A                      A
 Frequencies --   1472.1169              1484.5865              1506.8525
 Red. masses --      1.2077                 2.6372                 2.2226
 Frc consts  --      1.5421                 3.4245                 2.9733
 IR Inten    --      6.3784                 0.7625                12.7685

                     52                     53                     54
                      A                      A                      A
 Frequencies --   1557.8475              1632.6965              1659.1807
 Red. masses --      3.4978                 6.5972                 5.4348
 Frc consts  --      5.0014                10.3615                 8.8150
 IR Inten    --      5.5266                10.8768                21.9757

                     55                     56                     57
                      A                      A                      A
 Frequencies --   1689.8978              2145.4105              3086.5714
 Red. masses --      6.0166                 1.0887                 1.0556
 Frc consts  --     10.1233                 2.9524                 5.9253
 IR Inten    --     13.3313              1567.0261                13.7624

                     58                     59                     60
                      A                      A                      A
 Frequencies --   3137.7363              3151.0632              3152.9300
 Red. masses --      1.0911                 1.0902                 1.0899
 Frc consts  --      6.3290                 6.3778                 6.3838
 IR Inten    --      3.8279                 0.4486                 9.7338

                     61                     62                     63
                      A                      A                      A
 Frequencies --   3155.9624              3163.3813              3194.7526
 Red. masses --      1.0905                 1.1070                 1.0914
 Frc consts  --      6.3991                 6.5269                 6.5630
 IR Inten    --      0.9807                 4.1247                 7.0006

                     64                     65                     66
                      A                      A                      A
 Frequencies --   3197.1721              3212.6459              3834.6092
 Red. masses --      1.0931                 1.0957                 1.0682
 Frc consts  --      6.5833                 6.6631                 9.2541
 IR Inten    --      7.1266                10.1019                95.9707

 - Thermochemistry -
 -------------------
 Temperature   298.150 Kelvin.  Pressure   1.00000 Atm.
 Atom     1 has atomic number  6 and mass  12.00000

 Molecular mass:   175.07590 amu.
 Principal axes and moments of inertia in atomic units:
                           1         2         3
     Eigenvalues --   917.463034811.113655379.50506
           X            0.99994   0.00701   0.00842
           Y           -0.00683   0.99974  -0.02158
           Z           -0.00857   0.02152   0.99973
 This molecule is an asymmetric top.
 Rotational symmetry number  1.
 Warning -- assumption of classical behavior for rotation
           may cause significant error
 Rotational temperatures (Kelvin)      0.09441     0.01800     0.01610
 Rotational constants (GHZ):           1.96710     0.37512     0.33548
    4 imaginary frequencies ignored.
 Zero-point vibrational energy     492583.9 (Joules/Mol)
                                  117.73037 (Kcal/Mol)
 Warning -- explicit consideration of  13 degrees of freedom as
           vibrations may cause significant error
 Vibrational temperatures:    115.57   187.52   264.41   372.23   384.58
          (Kelvin)            572.42   594.85   641.72   655.74   689.37
                              744.43   757.48   880.80   912.70   926.79
                             1045.42  1086.58  1126.73  1138.71  1190.93
                             1224.01  1257.96  1283.74  1318.10  1332.71
                             1396.76  1422.78  1448.07  1465.02  1472.69
                             1510.77  1573.27  1658.08  1675.14  1698.86
                             1727.72  1743.01  1782.73  1849.72  1864.64
                             2006.68  2012.83  2043.02  2059.72  2118.05
                             2135.99  2168.02  2241.40  2349.09  2387.19
                             2431.39  3086.77  4440.89  4514.50  4533.68
                             4536.36  4540.73  4551.40  4596.54  4600.02
                             4622.28  5517.15

 Zero-point correction=                           0.187615 (Hartree/Particle)
 Thermal correction to Energy=                    0.196779
 Thermal correction to Enthalpy=                  0.197723
 Thermal correction to Gibbs Free Energy=         0.152002
 Sum of electronic and zero-point Energies=           -575.811075
 Sum of electronic and thermal Energies=              -575.801912
 Sum of electronic and thermal Enthalpies=            -575.800967
 Sum of electronic and thermal Free Energies=         -575.846688

                     E (Thermal)             CV                S
                      KCal/Mol        Cal/Mol-Kelvin    Cal/Mol-Kelvin
 Total                  123.481             38.349             96.227
 Electronic               0.000              0.000              1.377
 Translational            0.889              2.981             41.387
 Rotational               0.889              2.981             31.541
 Vibrational            121.703             32.387             21.922
 Vibration     1          0.600              1.963              3.883
 Vibration     2          0.612              1.923              2.941
 Vibration     3          0.631              1.862              2.290
 Vibration     4          0.668              1.748              1.670
 Vibration     5          0.672              1.733              1.614
 Vibration     6          0.764              1.475              0.971
 Vibration     7          0.777              1.441              0.915
 Vibration     8          0.805              1.370              0.808
 Vibration     9          0.814              1.348              0.779
 Vibration    10          0.836              1.296              0.712
 Vibration    11          0.872              1.211              0.616
 Vibration    12          0.881              1.191              0.595
 Vibration    13          0.971              1.006              0.429

 Optimization completed.
    -- Stationary point found.
 Normal termination of Gaussian 16 at Fri Dec  7 14:30:04 2018.
