 Gaussian 16, Revision A.03,
 Gaussian 16:  EM64L-G16RevA.03 25-Dec-2016

 ----------------------------------------------------------------------
 #m062x/6-311+g(2df,2p) Opt=(ModRedun,Loose,maxcycle=1000) Int(Grid=SG1
 ) freq
 ----------------------------------------------------------------------

 -----
 Title
 -----
 Symbolic Z-matrix:
 Charge =  0 Multiplicity = 1

 SCF Done:  E(RM062X) =  -576.427695459     A.U. after   22 cycles
 SCF Done:  E(RM062X) =  -576.461000686     A.U. after   17 cycles
 SCF Done:  E(RM062X) =  -576.486849801     A.U. after   17 cycles
 SCF Done:  E(RM062X) =  -576.489085705     A.U. after   15 cycles
 SCF Done:  E(RM062X) =  -576.489382206     A.U. after   11 cycles
 SCF Done:  E(RM062X) =  -576.493506928     A.U. after   17 cycles
 SCF Done:  E(RM062X) =  -576.500618698     A.U. after   16 cycles
 SCF Done:  E(RM062X) =  -576.505211678     A.U. after   17 cycles
 SCF Done:  E(RM062X) =  -576.505608825     A.U. after   13 cycles
 SCF Done:  E(RM062X) =  -576.512116441     A.U. after   18 cycles
 SCF Done:  E(RM062X) =  -576.533317632     A.U. after   12 cycles
 SCF Done:  E(RM062X) =  -576.533382629     A.U. after   12 cycles
 SCF Done:  E(RM062X) =  -576.533462800     A.U. after   11 cycles
 SCF Done:  E(RM062X) =  -576.533524041     A.U. after   11 cycles
 SCF Done:  E(RM062X) =  -576.533578088     A.U. after   11 cycles
 SCF Done:  E(RM062X) =  -576.533671658     A.U. after   12 cycles
 SCF Done:  E(RM062X) =  -576.533686945     A.U. after   11 cycles
 SCF Done:  E(RM062X) =  -576.533687678     A.U. after   10 cycles
 SCF Done:  E(RM062X) =  -576.533691489     A.U. after   11 cycles
 Optimization completed.
    -- Stationary point found.
 Normal termination of Gaussian 16 at Wed Jan 16 16:53:35 2019.

 ----------------------------------------------------------------------
 #N Geom=AllCheck Guess=TCheck SCRF=Check GenChk RM062X/6-311+G(2df,2p)
  Freq
 ----------------------------------------------------------------------

 Structure from the checkpoint file:  "/scratch/dinius.ab/QMscratch/Gau-38367.chk"
 -----
 Title
 -----
 Charge =  0 Multiplicity = 1

                         Standard orientation:
 ---------------------------------------------------------------------
 Center     Atomic      Atomic             Coordinates (Angstroms)
 Number     Number       Type             X           Y           Z
 ---------------------------------------------------------------------
      1          6           0        3.137285   -1.407165   -0.119234
      2          6           0        3.579287   -0.072887   -0.465076
      3          6           0        1.871741   -1.634518    0.270868
      4          1           0        3.843789   -2.223413   -0.176760
      5          6           0        2.731767    0.968835   -0.407834
      6          1           0        4.605443    0.074856   -0.771350
      7          6           0        1.349756    0.792718   -0.011893
      8          1           0        3.062529    1.967826   -0.663184
      9          6           0        0.903097   -0.559060    0.347372
     10          1           0        1.537849   -2.630557    0.531768
     11          6           0       -0.346668   -0.764800    0.828018
     12          6           0        0.503958    1.843683    0.125726
     13          6           0       -0.896113    1.667124    0.455494
     14          1           0        0.879440    2.851671    0.007134
     15          6           0       -1.349435    0.290289    0.842164
     16          1           0       -1.419940    2.513212    0.872873
     17          1           0       -0.626145   -1.730512    1.226039
     18          1           0       -2.181918    0.173988    1.521258
     19          6           0       -1.810758    0.809244   -0.523871
     20          1           0       -2.738473    1.357096   -0.613397
     21          1           0       -2.374686   -0.117064   -0.672672
     22          1           0       -1.240831    0.597466   -1.419655
     23          8           0       -3.008992   -0.983849   -0.921352
     24          8           0       -4.061938   -0.740295    0.006411
     25          1           0       -4.823124   -0.642194   -0.572929
 ---------------------------------------------------------------------

 SCF Done:  E(RM062X) =  -576.533691489     A.U. after    1 cycles

 The electronic state is 1-A.
 Alpha  occ. eigenvalues --  -19.64837 -19.60583 -10.58768 -10.58325 -10.56320
 Alpha  occ. eigenvalues --  -10.56220 -10.56084 -10.55986 -10.55555 -10.55203
 Alpha  occ. eigenvalues --  -10.55053 -10.54971 -10.54928  -1.20892  -1.02606
 Alpha  occ. eigenvalues --   -0.97325  -0.94950  -0.88958  -0.88601  -0.82832
 Alpha  occ. eigenvalues --   -0.77921  -0.72408  -0.71556  -0.68779  -0.62197
 Alpha  occ. eigenvalues --   -0.61201  -0.59745  -0.56742  -0.56164  -0.54170
 Alpha  occ. eigenvalues --   -0.52336  -0.51793  -0.49714  -0.48343  -0.47932
 Alpha  occ. eigenvalues --   -0.47597  -0.46242  -0.45317  -0.42559  -0.41361
 Alpha  occ. eigenvalues --   -0.40712  -0.39433  -0.35834  -0.33829  -0.32306
 Alpha  occ. eigenvalues --   -0.30204  -0.23945
 Alpha virt. eigenvalues --   -0.05170   0.00223   0.01327   0.01624   0.02115
 Alpha virt. eigenvalues --    0.02931   0.03397   0.03795   0.04370   0.04643
 Alpha virt. eigenvalues --    0.05871   0.06035   0.06508   0.06660   0.08451

 Mulliken charges:
               1
     1  C   -0.320517
     2  C   -0.344222
     3  C   -0.266648
     4  H    0.150666
     5  C   -0.242833
     6  H    0.151159
     7  C    0.364847
     8  H    0.156292
     9  C    0.385477
    10  H    0.160142
    11  C   -0.075183
    12  C   -0.122969
    13  C   -0.085790
    14  H    0.159747
    15  C   -0.305447
    16  H    0.162754
    17  H    0.171798
    18  H    0.228544
    19  C   -0.868173
    20  H    0.205123
    21  H    0.602719
    22  H    0.225833
    23  O   -0.454466
    24  O   -0.311093
    25  H    0.272240
 Sum of Mulliken charges =  -0.00000

 Dipole moment (field-independent basis, Debye):
    X=              1.4592    Y=              2.8496    Z=              0.3568  Tot=              3.2213
 Quadrupole moment (field-independent basis, Debye-Ang):
   XX=            -72.4446   YY=            -72.7034   ZZ=            -80.4968
   XY=             -9.0194   XZ=             -2.1113   YZ=             -2.7673

  Exact polarizability: 204.329  -6.091 141.262  -9.533  -3.698  91.999
 Approx polarizability: 238.690  -6.362 198.675 -16.808  -5.706 130.893

 ******    2 imaginary frequencies (negative Signs) ******

                      1                      2                      3
                      A                      A                      A
 Frequencies --   -788.3603              -476.5998                50.4387
 Red. masses --      1.2012                 2.3154                 6.1111
 Frc consts  --      0.4399                 0.3099                 0.0092
 IR Inten    --    302.7268                10.5663                 2.0138

                      4                      5                      6
                      A                      A                      A
 Frequencies --     80.0333               130.4622               145.8565
 Red. masses --      5.0814                 4.8226                 4.4006
 Frc consts  --      0.0192                 0.0484                 0.0552
 IR Inten    --      0.1658                11.5953                 4.5479

                      7                      8                      9
                      A                      A                      A
 Frequencies --    189.7491               245.8559               318.5342
 Red. masses --      4.6176                 3.9498                 3.9572
 Frc consts  --      0.0980                 0.1407                 0.2366
 IR Inten    --      5.4849                 6.0886                10.8685

                     10                     11                     12
                      A                      A                      A
 Frequencies --    387.7562               402.9217               421.5338
 Red. masses --      1.1607                 3.5611                 2.2277
 Frc consts  --      0.1028                 0.3406                 0.2332
 IR Inten    --     85.4926                 4.3689                 8.8715

                     13                     14                     15
                      A                      A                      A
 Frequencies --    433.9713               471.8428               499.8683
 Red. masses --      2.6745                 4.5138                 5.1431
 Frc consts  --      0.2968                 0.5921                 0.7572
 IR Inten    --     27.7899                48.9885                66.8494

                     16                     17                     18
                      A                      A                      A
 Frequencies --    536.4883               568.3999               617.9031
 Red. masses --      4.1392                 2.8750                 5.9245
 Frc consts  --      0.7019                 0.5473                 1.3327
 IR Inten    --      4.4314                35.7736                 1.4816

                     19                     20                     21
                      A                      A                      A
 Frequencies --    725.8789               742.0026               752.3697
 Red. masses --      1.7947                 3.0941                 2.8749
 Frc consts  --      0.5571                 1.0037                 0.9588
 IR Inten    --      7.8699                 5.0017                 9.3811

                     22                     23                     24
                      A                      A                      A
 Frequencies --    760.2592               787.1927               828.4232
 Red. masses --      2.7596                 2.4140                 1.4368
 Frc consts  --      0.9398                 0.8814                 0.5810
 IR Inten    --      2.5819                79.1523                 5.6990

                     25                     26                     27
                      A                      A                      A
 Frequencies --    853.4044               877.9337               905.3890
 Red. masses --      1.8674                 1.6197                 1.7580
 Frc consts  --      0.8013                 0.7355                 0.8491
 IR Inten    --     43.2513                91.3975                 9.8283

                     28                     29                     30
                      A                      A                      A
 Frequencies --    915.5615               933.6189               936.1982
 Red. masses --      2.6416                 1.3915                 2.6719
 Frc consts  --      1.3046                 0.7146                 1.3798
 IR Inten    --     16.1636                42.4117                29.2544

                     31                     32                     33
                      A                      A                      A
 Frequencies --    999.5270              1000.3296              1007.5042
 Red. masses --      1.3430                 1.9741                 1.7212
 Frc consts  --      0.7905                 1.1639                 1.0294
 IR Inten    --      2.0935                13.8998                 3.4160

                     34                     35                     36
                      A                      A                      A
 Frequencies --   1011.4107              1027.3066              1086.3251
 Red. masses --      1.6905                 4.0401                 1.6889
 Frc consts  --      1.0189                 2.5122                 1.1743
 IR Inten    --      2.3963                15.1500                26.9607

                     37                     38                     39
                      A                      A                      A
 Frequencies --   1096.6769              1134.8894              1162.0935
 Red. masses --      2.2675                 1.4594                 1.4703
 Frc consts  --      1.6068                 1.1075                 1.1699
 IR Inten    --     10.2555                 3.8153                 7.9727

                     40                     41                     42
                      A                      A                      A
 Frequencies --   1173.7759              1186.5808              1206.2589
 Red. masses --      1.2867                 1.1767                 1.3625
 Frc consts  --      1.0445                 0.9762                 1.1681
 IR Inten    --      8.0163                 4.3384                22.5916

                     43                     44                     45
                      A                      A                      A
 Frequencies --   1236.6382              1240.0123              1286.2061
 Red. masses --      1.6712                 1.6506                 1.1860
 Frc consts  --      1.5058                 1.4954                 1.1560
 IR Inten    --      4.8888                 4.7397                10.6217

                     46                     47                     48
                      A                      A                      A
 Frequencies --   1309.3482              1374.7943              1380.8681
 Red. masses --      1.4015                 2.0459                 1.2295
 Frc consts  --      1.4156                 2.2783                 1.3813
 IR Inten    --      2.1299                 3.4529                56.5144

                     49                     50                     51
                      A                      A                      A
 Frequencies --   1410.4272              1421.0585              1429.9338
 Red. masses --      1.6032                 1.2470                 1.7879
 Frc consts  --      1.8791                 1.4837                 2.1539
 IR Inten    --      0.9803                 6.6206                 7.7536

                     52                     53                     54
                      A                      A                      A
 Frequencies --   1446.9300              1482.1590              1597.2260
 Red. masses --      2.0220                 2.6817                 5.4901
 Frc consts  --      2.4942                 3.4709                 8.2521
 IR Inten    --      2.3735                 0.5238                11.2759

                     55                     56                     57
                      A                      A                      A
 Frequencies --   1623.7794              1675.9378              1731.6488
 Red. masses --      7.4723                 6.3631                 6.5618
 Frc consts  --     11.6081                10.5301                11.5929
 IR Inten    --      5.7719                 6.3713                 4.4285

                     58                     59                     60
                      A                      A                      A
 Frequencies --   3057.4764              3117.4642              3150.2190
 Red. masses --      1.0537                 1.0413                 1.0893
 Frc consts  --      5.8037                 5.9626                 6.3691
 IR Inten    --   2758.5671              1128.1627                 1.6528

                     61                     62                     63
                      A                      A                      A
 Frequencies --   3152.3217              3165.7592              3171.4705
 Red. masses --      1.0902                 1.0896                 1.0897
 Frc consts  --      6.3828                 6.4341                 6.4578
 IR Inten    --      0.2295                 6.1452                11.4566

                     64                     65                     66
                      A                      A                      A
 Frequencies --   3179.7169              3180.9912              3185.0026
 Red. masses --      1.0922                 1.0943                 1.0926
 Frc consts  --      6.5060                 6.5240                 6.5302
 IR Inten    --      4.7152                12.9022                 3.1171

                     67                     68                     69
                      A                      A                      A
 Frequencies --   3204.0507              3232.4747              3910.9912
 Red. masses --      1.0953                 1.1154                 1.0684
 Frc consts  --      6.6252                 6.8668                 9.6282
 IR Inten    --      7.6160                47.2487                54.2421

 - Thermochemistry -
 -------------------
 Temperature   298.150 Kelvin.  Pressure   1.00000 Atm.
 Atom     1 has atomic number  6 and mass  12.00000

 Molecular mass:   176.08373 amu.
 Principal axes and moments of inertia in atomic units:
                           1         2         3
     Eigenvalues --  1004.468363806.870574436.49502
           X            0.99995  -0.00974  -0.00289
           Y            0.00968   0.99979  -0.01816
           Z            0.00307   0.01813   0.99983
 This molecule is an asymmetric top.
 Rotational symmetry number  1.
 Warning -- assumption of classical behavior for rotation
           may cause significant error
 Rotational temperatures (Kelvin)      0.08623     0.02275     0.01952
 Rotational constants (GHZ):           1.79671     0.47407     0.40679
    2 imaginary frequencies ignored.
 Zero-point vibrational energy     532143.4 (Joules/Mol)
                                  127.18533 (Kcal/Mol)
 Warning -- explicit consideration of  16 degrees of freedom as
           vibrations may cause significant error
 Vibrational temperatures:     72.57   115.15   187.71   209.85   273.01
          (Kelvin)            353.73   458.30   557.89   579.71   606.49
                              624.39   678.88   719.20   771.89   817.80
                              889.02  1044.38  1067.58  1082.49  1093.84
                             1132.59  1191.92  1227.86  1263.15  1302.65
                             1317.29  1343.27  1346.98  1438.10  1439.25
                             1449.57  1455.19  1478.07  1562.98  1577.87
                             1632.85  1671.99  1688.80  1707.23  1735.54
                             1779.25  1784.10  1850.56  1883.86  1978.02
                             1986.76  2029.29  2044.59  2057.36  2081.81
                             2132.50  2298.05  2336.26  2411.30  2491.46
                             4399.03  4485.34  4532.46  4535.49  4554.82
                             4563.04  4574.90  4576.74  4582.51  4609.91
                             4650.81  5627.04

 Zero-point correction=                           0.202683 (Hartree/Particle)
 Thermal correction to Energy=                    0.213401
 Thermal correction to Enthalpy=                  0.214345
 Thermal correction to Gibbs Free Energy=         0.165786
 Sum of electronic and zero-point Energies=           -576.331009
 Sum of electronic and thermal Energies=              -576.320291
 Sum of electronic and thermal Enthalpies=            -576.319346
 Sum of electronic and thermal Free Energies=         -576.367906

                     E (Thermal)             CV                S
                      KCal/Mol        Cal/Mol-Kelvin    Cal/Mol-Kelvin
 Total                  133.911             42.897            102.201
 Electronic               0.000              0.000              0.000
 Translational            0.889              2.981             41.405
 Rotational               0.889              2.981             31.207
 Vibrational            132.134             36.936             29.590
 Vibration     1          0.595              1.977              4.800
 Vibration     2          0.600              1.963              3.890
 Vibration     3          0.612              1.923              2.939
 Vibration     4          0.617              1.907              2.726
 Vibration     5          0.633              1.854              2.230
 Vibration     6          0.660              1.770              1.760
 Vibration     7          0.705              1.638              1.318
 Vibration     8          0.756              1.496              1.009
 Vibration     9          0.768              1.464              0.952
 Vibration    10          0.784              1.423              0.887
 Vibration    11          0.795              1.396              0.846
 Vibration    12          0.829              1.313              0.732
 Vibration    13          0.855              1.250              0.658
 Vibration    14          0.891              1.169              0.573
 Vibration    15          0.924              1.100              0.507
 Vibration    16          0.978              0.994              0.420

 Optimization completed.
    -- Stationary point found.
 Normal termination of Gaussian 16 at Wed Jan 16 22:38:22 2019.
