 Gaussian 16, Revision A.03,
 Gaussian 16:  EM64L-G16RevA.03 25-Dec-2016

 ----------------------------------------------------------------------
 #m062x/6-311+g(2df,2p) Opt=(ModRedun,Loose,maxcycle=1000) Int(Grid=SG1
 ) freq
 ----------------------------------------------------------------------

 -----
 Title
 -----
 Symbolic Z-matrix:
 Charge =  0 Multiplicity = 2

 SCF Done:  E(UM062X) =  -575.961927926     A.U. after   21 cycles
 SCF Done:  E(UM062X) =  -575.996867381     A.U. after   20 cycles
 SCF Done:  E(UM062X) =  -576.015783784     A.U. after   19 cycles
 SCF Done:  E(UM062X) =  -576.025213098     A.U. after   19 cycles
 SCF Done:  E(UM062X) =  -576.035138899     A.U. after   20 cycles
 SCF Done:  E(UM062X) =  -576.041158946     A.U. after   17 cycles
 SCF Done:  E(UM062X) =  -576.048869080     A.U. after   21 cycles
 SCF Done:  E(UM062X) =  -576.051354822     A.U. after   20 cycles
 SCF Done:  E(UM062X) =  -576.051961527     A.U. after   20 cycles
 SCF Done:  E(UM062X) =  -576.052967443     A.U. after   20 cycles
 SCF Done:  E(UM062X) =  -576.053538242     A.U. after   20 cycles
 SCF Done:  E(UM062X) =  -576.053894041     A.U. after   18 cycles
 SCF Done:  E(UM062X) =  -576.053985518     A.U. after   17 cycles
 Optimization completed.
    -- Stationary point found.
 Normal termination of Gaussian 16 at Wed Nov  7 04:11:48 2018.

 ----------------------------------------------------------------------
 #N Geom=AllCheck Guess=TCheck SCRF=Check GenChk UM062X/6-311+G(2df,2p)
  Freq
 ----------------------------------------------------------------------

 Structure from the checkpoint file:  "/scratch/dinius.ab/QMscratch/Gau-36563.chk"
 -----
 Title
 -----
 Charge =  0 Multiplicity = 2

                         Standard orientation:
 ---------------------------------------------------------------------
 Center     Atomic      Atomic             Coordinates (Angstroms)
 Number     Number       Type             X           Y           Z
 ---------------------------------------------------------------------
      1          6           0       -1.077658    0.940608   -0.152447
      2          6           0       -0.329336    2.138277   -0.125920
      3          6           0       -0.468531   -0.286386   -0.107051
      4          1           0       -2.158703    0.990126   -0.209057
      5          6           0        1.032110    2.096783   -0.052798
      6          1           0       -0.844095    3.088346   -0.161659
      7          6           0        1.707392    0.852574   -0.002808
      8          1           0        1.613895    3.008847   -0.034048
      9          6           0        0.954945   -0.350357   -0.029042
     10          6           0        1.652217   -1.582854    0.020595
     11          6           0        3.018268   -1.619164    0.092786
     12          1           0        1.093085   -2.507336   -0.000292
     13          6           0        3.118846    0.783568    0.073167
     14          6           0        3.762856   -0.421311    0.119253
     15          1           0        3.680090    1.708767    0.090807
     16          1           0        3.531756   -2.570037    0.124963
     17          1           0        4.842442   -0.460155    0.172011
     18          6           0       -1.294959   -1.541940   -0.135755
     19          1           0       -2.345771   -1.277531   -0.217307
     20          1           0       -1.157771   -2.137441    0.768153
     21          1           0       -1.039219   -2.174083   -0.987144
     22          8           0       -4.686235   -0.689497   -0.398293
     23          8           0       -4.651021    0.244046    0.513218
     24          1           0       -4.974565   -0.164686    1.334281
 ---------------------------------------------------------------------

 SCF Done:  E(UM062X) =  -576.053985518     A.U. after    1 cycles

 The electronic state is 2-A.
 Alpha  occ. eigenvalues --  -19.76427 -19.72388 -10.54795 -10.54737 -10.54618
 Alpha  occ. eigenvalues --  -10.54108 -10.54075 -10.53987 -10.53954 -10.53799
 Alpha  occ. eigenvalues --  -10.53690 -10.53393 -10.52882  -1.36108  -1.00393
 Alpha  occ. eigenvalues --   -0.98248  -0.92595  -0.88542  -0.83487  -0.82908
 Alpha  occ. eigenvalues --   -0.77314  -0.70459  -0.69574  -0.67301  -0.65730
 Alpha  occ. eigenvalues --   -0.61565  -0.59010  -0.58634  -0.57857  -0.56430
 Alpha  occ. eigenvalues --   -0.51733  -0.50336  -0.49363  -0.48313  -0.47420
 Alpha  occ. eigenvalues --   -0.46160  -0.45133  -0.44267  -0.42673  -0.40129
 Alpha  occ. eigenvalues --   -0.39928  -0.39180  -0.38853  -0.38121  -0.33683
 Alpha  occ. eigenvalues --   -0.29523  -0.26345
 Alpha virt. eigenvalues --   -0.01480   0.01029   0.01348   0.01846   0.02087
 Alpha virt. eigenvalues --    0.03281   0.03653   0.04645   0.04933   0.06008
 Alpha virt. eigenvalues --    0.06215   0.06320   0.07691   0.07955   0.08719

  Beta  occ. eigenvalues --  -19.75693 -19.70918 -10.54795 -10.54737 -10.54617
  Beta  occ. eigenvalues --  -10.54108 -10.54075 -10.53987 -10.53954 -10.53799
  Beta  occ. eigenvalues --  -10.53690 -10.53393 -10.52873  -1.32797  -0.98247
  Beta  occ. eigenvalues --   -0.95544  -0.92593  -0.88536  -0.83487  -0.82901
  Beta  occ. eigenvalues --   -0.77299  -0.70456  -0.69569  -0.65719  -0.65363
  Beta  occ. eigenvalues --   -0.58840  -0.57928  -0.56569  -0.56353  -0.52141
  Beta  occ. eigenvalues --   -0.50994  -0.50305  -0.49350  -0.48304  -0.47416
  Beta  occ. eigenvalues --   -0.46135  -0.45128  -0.44106  -0.42661  -0.39183
  Beta  occ. eigenvalues --   -0.38855  -0.38117  -0.37291  -0.33682  -0.29524
  Beta  occ. eigenvalues --   -0.26345
  Beta virt. eigenvalues --   -0.07917  -0.01477   0.01095   0.01371   0.01953
  Beta virt. eigenvalues --    0.02097   0.03344   0.03669   0.04646   0.04966
  Beta virt. eigenvalues --    0.06026   0.06292   0.06344   0.07733   0.07970

 Mulliken charges and spin densities:
               1          2
     1  C   -0.744404   0.008725
     2  C   -0.551315   0.005810
     3  C    0.749282  -0.018153
     4  H    0.188551  -0.000422
     5  C   -0.082515   0.000656
     6  H    0.148264  -0.000034
     7  C    0.112403   0.001121
     8  H    0.153966  -0.000002
     9  C    0.711756  -0.002766
    10  C   -0.049378  -0.000141
    11  C   -0.462048  -0.000591
    12  H    0.174348  -0.000079
    13  C    0.014040   0.000243
    14  C   -0.412047   0.000136
    15  H    0.151705   0.000009
    16  H    0.147538   0.000004
    17  H    0.151055  -0.000002
    18  C   -0.976415   0.012161
    19  H    0.171867   0.000602
    20  H    0.178896  -0.000343
    21  H    0.182037  -0.000358
    22  O   -0.146718   0.742724
    23  O   -0.072710   0.260047
    24  H    0.261840  -0.009347
 Sum of Mulliken charges =  -0.00000   1.00000

 Dipole moment (field-independent basis, Debye):
    X=             -1.1489    Y=             -0.3328    Z=              2.0747  Tot=              2.3948
 Quadrupole moment (field-independent basis, Debye-Ang):
   XX=            -63.3228   YY=            -70.9864   ZZ=            -79.0684
   XY=              0.3257   XZ=            -10.3962   YZ=             -0.9322

  Exact polarizability: 179.696 -12.256 154.926   3.451   1.310  84.312
 Approx polarizability: 223.110 -17.407 211.345   5.323   2.175 116.811

 ******    1 imaginary frequencies (negative Signs) ******

                      1                      2                      3
                      A                      A                      A
 Frequencies --     -8.2344                27.4040                61.5512
 Red. masses --      4.1450                 6.2519                 3.8697
 Frc consts  --      0.0002                 0.0028                 0.0086
 IR Inten    --      5.9228                 0.3544                14.0732

                      4                      5                      6
                      A                      A                      A
 Frequencies --     85.3098               112.9680               140.2260
 Red. masses --      2.5669                 1.9949                 2.1322
 Frc consts  --      0.0110                 0.0150                 0.0247
 IR Inten    --     76.9427               104.2610                 1.3830

                      7                      8                      9
                      A                      A                      A
 Frequencies --    148.5611               160.2806               186.5923
 Red. masses --      8.2623                 1.6275                 2.4598
 Frc consts  --      0.1074                 0.0246                 0.0505
 IR Inten    --      6.8246                 0.2884                 2.8532

                     10                     11                     12
                      A                      A                      A
 Frequencies --    255.8813               289.8339               427.8334
 Red. masses --      3.1085                 3.0464                 3.1985
 Frc consts  --      0.1199                 0.1508                 0.3449
 IR Inten    --      2.7140                 0.5465                 3.6928

                     13                     14                     15
                      A                      A                      A
 Frequencies --    447.1364               485.8615               486.5679
 Red. masses --      3.3104                 4.9487                 3.6891
 Frc consts  --      0.3900                 0.6883                 0.5146
 IR Inten    --      1.6776                 0.6259                 0.2653

                     16                     17                     18
                      A                      A                      A
 Frequencies --    519.9926               558.8049               578.0758
 Red. masses --      5.9259                 2.8944                 5.9573
 Frc consts  --      0.9441                 0.5325                 1.1729
 IR Inten    --      0.1530                 5.6492                 1.6057

                     19                     20                     21
                      A                      A                      A
 Frequencies --    652.2235               722.4604               786.5818
 Red. masses --      3.2456                 5.1164                 1.2778
 Frc consts  --      0.8135                 1.5734                 0.4658
 IR Inten    --      0.0290                 1.2678                 3.2469

                     22                     23                     24
                      A                      A                      A
 Frequencies --    805.7801               814.8779               850.3707
 Red. masses --      5.3409                 2.5279                 1.3590
 Frc consts  --      2.0432                 0.9890                 0.5790
 IR Inten    --      1.4125                21.3109                80.5128

                     25                     26                     27
                      A                      A                      A
 Frequencies --    879.4782               918.5015               959.3465
 Red. masses --      3.8833                 1.3862                 1.4102
 Frc consts  --      1.7697                 0.6890                 0.7647
 IR Inten    --      0.2197                 0.0749                 0.2720

                     28                     29                     30
                      A                      A                      A
 Frequencies --    993.4728              1024.2794              1044.6293
 Red. masses --      1.8686                 1.3244                 1.3262
 Frc consts  --      1.0866                 0.8187                 0.8526
 IR Inten    --      1.1865                 1.5176                 1.0326

                     31                     32                     33
                      A                      A                      A
 Frequencies --   1050.4432              1050.9057              1063.6757
 Red. masses --      1.4101                 2.3870                 1.6183
 Frc consts  --      0.9167                 1.5532                 1.0788
 IR Inten    --      0.7603                 4.7936                 0.6897

                     34                     35                     36
                      A                      A                      A
 Frequencies --   1088.0449              1107.3294              1174.2091
 Red. masses --      2.1879                 2.3004                 1.3170
 Frc consts  --      1.5260                 1.6619                 1.0698
 IR Inten    --      0.2505                 2.3777                 0.8046

                     37                     38                     39
                      A                      A                      A
 Frequencies --   1190.6334              1200.8514              1244.2858
 Red. masses --      1.4172                 1.1998                 1.8840
 Frc consts  --      1.1837                 1.0194                 1.7186
 IR Inten    --      2.0918                 1.8188                 0.5419

                     40                     41                     42
                      A                      A                      A
 Frequencies --   1276.4429              1281.6810              1301.9675
 Red. masses --     11.3583                 1.5828                 1.8634
 Frc consts  --     10.9036                 1.5319                 1.8610
 IR Inten    --     32.8481                 0.2042                 2.3903

                     43                     44                     45
                      A                      A                      A
 Frequencies --   1380.7558              1405.2877              1416.8276
 Red. masses --      2.7962                 1.3313                 5.8228
 Frc consts  --      3.1409                 1.5490                 6.8867
 IR Inten    --      0.8405                 0.7738                 0.7833

                     46                     47                     48
                      A                      A                      A
 Frequencies --   1442.0565              1475.6542              1480.4546
 Red. masses --      2.1267                 1.4532                 1.1467
 Frc consts  --      2.6057                 1.8645                 1.4808
 IR Inten    --     13.1677                 6.0372                39.3742

                     49                     50                     51
                      A                      A                      A
 Frequencies --   1490.5089              1508.1232              1513.2831
 Red. masses --      1.1052                 1.3073                 2.4894
 Frc consts  --      1.4466                 1.7518                 3.3589
 IR Inten    --      2.8051                 3.5616                 1.2760

                     52                     53                     54
                      A                      A                      A
 Frequencies --   1570.5444              1653.5623              1667.4498
 Red. masses --      3.6248                 7.0695                 5.0938
 Frc consts  --      5.2678                11.3889                 8.3445
 IR Inten    --      7.8914                 1.6199                 7.3709

                     55                     56                     57
                      A                      A                      A
 Frequencies --   1696.2641              3029.2496              3088.5306
 Red. masses --      6.2445                 1.0446                 1.0961
 Frc consts  --     10.5860                 5.6477                 6.1606
 IR Inten    --      0.5831                16.1699                 8.0460

                     58                     59                     60
                      A                      A                      A
 Frequencies --   3149.8503              3161.7937              3170.9060
 Red. masses --      1.0965                 1.0899                 1.0875
 Frc consts  --      6.4097                 6.4194                 6.4425
 IR Inten    --      5.0194                 1.0385                 1.0052

                     61                     62                     63
                      A                      A                      A
 Frequencies --   3176.1896              3186.1781              3195.2416
 Red. masses --      1.0889                 1.0893                 1.0923
 Frc consts  --      6.4721                 6.5154                 6.5708
 IR Inten    --      3.8140                 4.9808                 9.4034

                     64                     65                     66
                      A                      A                      A
 Frequencies --   3200.3533              3208.1995              3727.3752
 Red. masses --      1.0960                 1.0969                 1.0681
 Frc consts  --      6.6140                 6.6518                 8.7428
 IR Inten    --     14.0504                10.3929                54.2215

 - Thermochemistry -
 -------------------
 Temperature   298.150 Kelvin.  Pressure   1.00000 Atm.
 Atom     1 has atomic number  6 and mass  12.00000

 Molecular mass:   175.07590 amu.
 Principal axes and moments of inertia in atomic units:
                           1         2         3
     Eigenvalues --  1056.691474735.866665710.47584
           X            1.00000   0.00084  -0.00293
           Y           -0.00085   1.00000  -0.00183
           Z            0.00292   0.00183   0.99999
 This molecule is an asymmetric top.
 Rotational symmetry number  1.
 Warning -- assumption of classical behavior for rotation
           may cause significant error
 Rotational temperatures (Kelvin)      0.08197     0.01829     0.01517
 Rotational constants (GHZ):           1.70792     0.38108     0.31604
    1 imaginary frequencies ignored.
 Zero-point vibrational energy     505123.1 (Joules/Mol)
                                  120.72733 (Kcal/Mol)
 Warning -- explicit consideration of  17 degrees of freedom as
           vibrations may cause significant error
 Vibrational temperatures:     39.43    88.56   122.74   162.54   201.75
          (Kelvin)            213.75   230.61   268.46   368.16   417.01
                              615.56   643.33   699.05   700.06   748.15
                              804.00   831.72   938.40  1039.46  1131.72
                             1159.34  1172.43  1223.49  1265.37  1321.52
                             1380.29  1429.39  1473.71  1502.99  1511.35
                             1512.02  1530.39  1565.45  1593.20  1689.43
                             1713.06  1727.76  1790.25  1836.52  1844.05
                             1873.24  1986.60  2021.90  2038.50  2074.80
                             2123.14  2130.04  2144.51  2169.85  2177.28
                             2259.66  2379.11  2399.09  2440.55  4358.41
                             4443.71  4531.93  4549.12  4562.23  4569.83
                             4584.20  4597.24  4604.59  4615.88  5362.86

 Zero-point correction=                           0.192391 (Hartree/Particle)
 Thermal correction to Energy=                    0.204497
 Thermal correction to Enthalpy=                  0.205442
 Thermal correction to Gibbs Free Energy=         0.151810
 Sum of electronic and zero-point Energies=           -575.861594
 Sum of electronic and thermal Energies=              -575.849488
 Sum of electronic and thermal Enthalpies=            -575.848544
 Sum of electronic and thermal Free Energies=         -575.902175

                     E (Thermal)             CV                S
                      KCal/Mol        Cal/Mol-Kelvin    Cal/Mol-Kelvin
 Total                  128.324             44.068            112.876
 Electronic               0.000              0.000              1.377
 Translational            0.889              2.981             41.387
 Rotational               0.889              2.981             31.725
 Vibrational            126.547             38.106             38.387
 Vibration     1          0.593              1.984              6.009
 Vibration     2          0.597              1.973              4.407
 Vibration     3          0.601              1.959              3.765
 Vibration     4          0.607              1.939              3.217
 Vibration     5          0.615              1.913              2.801
 Vibration     6          0.618              1.904              2.691
 Vibration     7          0.622              1.891              2.546
 Vibration     8          0.632              1.858              2.261
 Vibration     9          0.666              1.753              1.690
 Vibration    10          0.686              1.693              1.475
 Vibration    11          0.789              1.410              0.866
 Vibration    12          0.806              1.367              0.804
 Vibration    13          0.842              1.281              0.694
 Vibration    14          0.843              1.280              0.693
 Vibration    15          0.875              1.206              0.610
 Vibration    16          0.914              1.120              0.526
 Vibration    17          0.935              1.079              0.489

 Optimization completed.
    -- Stationary point found.
 Normal termination of Gaussian 16 at Wed Nov  7 12:55:17 2018.
