 Gaussian 16, Revision A.03,
 Gaussian 16:  EM64L-G16RevA.03 25-Dec-2016

 ----------------------------------------------------------------------
 #m062x/6-311+g(2df,2p) Opt=(ModRedun,Loose,maxcycle=1000) Int(Grid=SG1
 ) freq
 ----------------------------------------------------------------------

 -----
 Title
 -----
 Symbolic Z-matrix:
 Charge =  0 Multiplicity = 2

 SCF Done:  E(UM062X) =  -729.604058937     A.U. after   21 cycles
 SCF Done:  E(UM062X) =  -729.638688440     A.U. after   18 cycles
 SCF Done:  E(UM062X) =  -729.653772716     A.U. after   21 cycles
 SCF Done:  E(UM062X) =  -729.652547342     A.U. after   22 cycles
 SCF Done:  E(UM062X) =  -729.657524427     A.U. after   20 cycles
 SCF Done:  E(UM062X) =  -729.662776077     A.U. after   20 cycles
 SCF Done:  E(UM062X) =  -729.677156373     A.U. after   21 cycles
 SCF Done:  E(UM062X) =  -729.686401486     A.U. after   20 cycles
 SCF Done:  E(UM062X) =  -729.688306937     A.U. after   19 cycles
 SCF Done:  E(UM062X) =  -729.686133361     A.U. after   20 cycles
 SCF Done:  E(UM062X) =  -729.694172480     A.U. after   16 cycles
 SCF Done:  E(UM062X) =  -729.694324132     A.U. after   16 cycles
 SCF Done:  E(UM062X) =  -729.694332799     A.U. after   14 cycles
 SCF Done:  E(UM062X) =  -729.694306322     A.U. after   16 cycles
 SCF Done:  E(UM062X) =  -729.694319987     A.U. after   16 cycles
 SCF Done:  E(UM062X) =  -729.694358828     A.U. after   14 cycles
 SCF Done:  E(UM062X) =  -729.694362807     A.U. after   14 cycles
 SCF Done:  E(UM062X) =  -729.694387130     A.U. after   17 cycles
 SCF Done:  E(UM062X) =  -729.694387949     A.U. after   14 cycles
 Optimization completed.
    -- Stationary point found.
 Normal termination of Gaussian 16 at Mon Nov 12 01:49:10 2018.

 ----------------------------------------------------------------------
 #N Geom=AllCheck Guess=TCheck SCRF=Check GenChk UM062X/6-311+G(2df,2p)
  Freq
 ----------------------------------------------------------------------

 Structure from the checkpoint file:  "/scratch/dinius.ab/QMscratch/Gau-33515.chk"
 -----
 Title
 -----
 Charge =  0 Multiplicity = 2

                         Standard orientation:
 ---------------------------------------------------------------------
 Center     Atomic      Atomic             Coordinates (Angstroms)
 Number     Number       Type             X           Y           Z
 ---------------------------------------------------------------------
      1          6           0        4.340195    0.222015    0.349601
      2          6           0        3.691137    1.463368    0.399717
      3          6           0        2.339489    1.551734    0.169188
      4          6           0        1.573319    0.407276   -0.122377
      5          6           0        3.618434   -0.908381    0.060466
      6          6           0        2.234072   -0.839701   -0.182769
      7          1           0        4.104755   -1.874187    0.017059
      8          1           0        5.403535    0.159203    0.534295
      9          1           0        4.256782    2.358064    0.620681
     10          1           0        1.869199    2.522543    0.208648
     11          6           0        1.491351   -2.027223   -0.496928
     12          6           0        0.140280    0.456524   -0.363836
     13          6           0        0.167817   -1.979016   -0.742782
     14          1           0        2.024222   -2.968035   -0.531055
     15          6           0       -0.548836   -0.736273   -0.682858
     16          1           0       -0.385263   -2.877720   -0.982956
     17          6           0       -1.936454   -0.702228   -0.917872
     18          6           0       -0.612771    1.643963   -0.287668
     19          6           0       -2.662378    0.465927   -0.835092
     20          1           0       -2.442351   -1.632796   -1.146130
     21          6           0       -1.969392    1.647911   -0.515642
     22          1           0       -0.130909    2.576897   -0.038227
     23          1           0       -2.519268    2.577071   -0.443947
     24          6           0       -4.153393    0.470736   -1.021311
     25          1           0       -4.644153    0.193903   -0.087337
     26          1           0       -4.453485   -0.250612   -1.779237
     27          1           0       -4.513939    1.454612   -1.315644
     28          8           0       -3.250800   -0.881101    2.056487
     29          8           0       -2.135599   -0.244769    2.279108
     30          1           0       -1.755158   -0.051771    1.400075
 ---------------------------------------------------------------------

 SCF Done:  E(UM062X) =  -729.694387949     A.U. after    1 cycles

 The electronic state is 2-A.
 Alpha  occ. eigenvalues --  -19.73482 -19.69567 -10.56784 -10.56604 -10.56544
 Alpha  occ. eigenvalues --  -10.56419 -10.56122 -10.55826 -10.55485 -10.55408
 Alpha  occ. eigenvalues --  -10.55290 -10.55287 -10.55241 -10.55171 -10.55116
 Alpha  occ. eigenvalues --  -10.55011 -10.53791  -1.33272  -1.00651  -0.97535
 Alpha  occ. eigenvalues --   -0.97001  -0.92740  -0.89678  -0.86736  -0.85091
 Alpha  occ. eigenvalues --   -0.82589  -0.78739  -0.72351  -0.72018  -0.70047
 Alpha  occ. eigenvalues --   -0.67584  -0.64646  -0.61992  -0.60791  -0.58676
 Alpha  occ. eigenvalues --   -0.58489  -0.56154  -0.56082  -0.55094  -0.52113
 Alpha  occ. eigenvalues --   -0.51070  -0.50818  -0.50283  -0.49359  -0.48686
 Alpha  occ. eigenvalues --   -0.48332  -0.46591  -0.45756  -0.43891  -0.43014
 Alpha  occ. eigenvalues --   -0.42594  -0.40024  -0.39349  -0.39086  -0.37238
 Alpha  occ. eigenvalues --   -0.37104  -0.35269  -0.33318  -0.28487  -0.27808
 Alpha virt. eigenvalues --   -0.02895  -0.02465   0.00633   0.00883   0.01251
 Alpha virt. eigenvalues --    0.01461   0.02755   0.02889   0.03589   0.04433
 Alpha virt. eigenvalues --    0.04549   0.04756   0.05076   0.06291   0.06608

  Beta  occ. eigenvalues --  -19.72701 -19.68122 -10.56784 -10.56605 -10.56544
  Beta  occ. eigenvalues --  -10.56419 -10.56122 -10.55826 -10.55485 -10.55408
  Beta  occ. eigenvalues --  -10.55290 -10.55287 -10.55241 -10.55171 -10.55116
  Beta  occ. eigenvalues --  -10.55011 -10.53789  -1.29924  -1.00638  -0.97208
  Beta  occ. eigenvalues --   -0.92761  -0.92483  -0.89677  -0.86736  -0.85088
  Beta  occ. eigenvalues --   -0.82589  -0.78735  -0.72350  -0.72018  -0.70047
  Beta  occ. eigenvalues --   -0.67583  -0.62765  -0.61976  -0.60785  -0.58491
  Beta  occ. eigenvalues --   -0.56101  -0.55093  -0.53781  -0.52114  -0.51069
  Beta  occ. eigenvalues --   -0.50819  -0.50302  -0.49359  -0.48747  -0.48624
  Beta  occ. eigenvalues --   -0.47921  -0.46590  -0.45754  -0.43842  -0.43013
  Beta  occ. eigenvalues --   -0.42593  -0.40023  -0.39262  -0.39083  -0.35279
  Beta  occ. eigenvalues --   -0.34468  -0.33313  -0.28477  -0.27807
  Beta virt. eigenvalues --   -0.05385  -0.02887  -0.02459   0.00638   0.00897
  Beta virt. eigenvalues --    0.01260   0.01472   0.02770   0.02903   0.03617
  Beta virt. eigenvalues --    0.04454   0.04569   0.04781   0.05097   0.06299

 Mulliken charges and spin densities:
               1          2
     1  C   -0.491564  -0.000330
     2  C   -0.540336   0.000040
     3  C   -0.349840  -0.000977
     4  C    0.343592  -0.000484
     5  C   -0.118181  -0.000495
     6  C    0.565434  -0.001057
     7  H    0.159907  -0.000000
     8  H    0.153519   0.000005
     9  H    0.151157   0.000000
    10  H    0.175806   0.000004
    11  C   -0.324897   0.001661
    12  C    0.376491   0.005421
    13  C   -0.523983   0.000739
    14  H    0.158207   0.000007
    15  C    0.522271   0.003551
    16  H    0.163807   0.000059
    17  C   -0.132792  -0.000705
    18  C   -0.582221   0.005443
    19  C    0.533927  -0.022500
    20  H    0.164964   0.000299
    21  C   -0.768089   0.001237
    22  H    0.176447   0.000089
    23  H    0.163539   0.000086
    24  C   -0.510758   0.008030
    25  H    0.171730  -0.003191
    26  H    0.139743   0.000007
    27  H    0.144025  -0.000095
    28  O   -0.127840   0.729556
    29  O   -0.196157   0.287620
    30  H    0.402091  -0.014018
 Sum of Mulliken charges =  -0.00000   1.00000

 Dipole moment (field-independent basis, Debye):
    X=              1.4809    Y=              0.8410    Z=             -1.9909  Tot=              2.6199
 Quadrupole moment (field-independent basis, Debye-Ang):
   XX=            -92.7393   YY=            -89.1639   ZZ=           -110.9398
   XY=             -3.6190   XZ=             10.0953   YZ=              4.3201

  Exact polarizability: 281.962  -1.982 181.457  24.016  10.173 110.494
 Approx polarizability: 336.449  -1.097 266.157  30.893  18.013 152.580

 ******    1 imaginary frequencies (negative Signs) ******

                      1                      2                      3
                      A                      A                      A
 Frequencies --   -110.2427                40.5040                44.5003
 Red. masses --      1.0200                 6.3910                 9.0309
 Frc consts  --      0.0073                 0.0062                 0.0105
 IR Inten    --      0.1367                 0.8712                 1.4443

                      4                      5                      6
                      A                      A                      A
 Frequencies --     72.1903                93.8250               100.9172
 Red. masses --      3.8972                 4.2020                 8.4064
 Frc consts  --      0.0120                 0.0218                 0.0504
 IR Inten    --      2.4223                 0.6030                 0.4557

                      7                      8                      9
                      A                      A                      A
 Frequencies --    118.2161               187.6425               202.5397
 Red. masses --      8.6300                 4.2753                 3.6474
 Frc consts  --      0.0711                 0.0887                 0.0882
 IR Inten    --      0.1737                 0.5167                 0.2230

                     10                     11                     12
                      A                      A                      A
 Frequencies --    229.2532               240.6280               254.5486
 Red. masses --      3.8130                 3.7167                 1.1220
 Frc consts  --      0.1181                 0.1268                 0.0428
 IR Inten    --      0.4955                16.7723                46.1997

                     13                     14                     15
                      A                      A                      A
 Frequencies --    315.5206               324.2876               394.1598
 Red. masses --      3.7219                 3.8179                 4.7281
 Frc consts  --      0.2183                 0.2366                 0.4328
 IR Inten    --      0.1650                 1.2942                 0.3626

                     16                     17                     18
                      A                      A                      A
 Frequencies --    403.5253               443.3584               464.4638
 Red. masses --      3.1089                 2.8154                 4.2051
 Frc consts  --      0.2983                 0.3261                 0.5345
 IR Inten    --      0.0329                12.6256                 2.2775

                     19                     20                     21
                      A                      A                      A
 Frequencies --    504.6782               531.6634               547.3262
 Red. masses --      5.5251                 3.0833                 2.8356
 Frc consts  --      0.8291                 0.5135                 0.5005
 IR Inten    --      0.7227                 0.4881                 0.0219

                     22                     23                     24
                      A                      A                      A
 Frequencies --    560.9888               580.9005               627.7995
 Red. masses --      7.0876                 5.7133                 2.9916
 Frc consts  --      1.3142                 1.1359                 0.6947
 IR Inten    --      0.3025                 1.6211                 2.9596

                     25                     26                     27
                      A                      A                      A
 Frequencies --    688.8620               738.0243               738.7924
 Red. masses --      5.4835                 3.1321                 4.8182
 Frc consts  --      1.5331                 1.0051                 1.5495
 IR Inten    --      4.8268                 6.9220                 2.1775

                     28                     29                     30
                      A                      A                      A
 Frequencies --    766.0960               785.8556               801.7917
 Red. masses --      1.2905                 5.5762                 1.9512
 Frc consts  --      0.4463                 2.0290                 0.7390
 IR Inten    --     45.9703                 1.0821                 6.9014

                     31                     32                     33
                      A                      A                      A
 Frequencies --    839.1485               852.8722               879.8370
 Red. masses --      1.5212                 1.6734                 4.5085
 Frc consts  --      0.6311                 0.7172                 2.0563
 IR Inten    --     16.7022                26.9494                 2.5222

                     34                     35                     36
                      A                      A                      A
 Frequencies --    906.4538               915.6188               952.4514
 Red. masses --      1.7620                 1.5686                 2.6686
 Frc consts  --      0.8530                 0.7748                 1.4263
 IR Inten    --      0.0603                17.0839                 0.5699

                     37                     38                     39
                      A                      A                      A
 Frequencies --    991.7035              1000.2049              1017.4542
 Red. masses --      1.3808                 1.3515                 1.3405
 Frc consts  --      0.8001                 0.7966                 0.8176
 IR Inten    --      0.3746                 2.3772                 0.2939

                     40                     41                     42
                      A                      A                      A
 Frequencies --   1020.8643              1024.2292              1026.2068
 Red. masses --      4.1378                 1.8660                 1.3543
 Frc consts  --      2.5407                 1.1533                 0.8403
 IR Inten    --      1.6045                 0.4923                 1.1489

                     43                     44                     45
                      A                      A                      A
 Frequencies --   1067.7428              1071.1321              1129.8409
 Red. masses --      1.5812                 2.1681                 2.1706
 Frc consts  --      1.0621                 1.4656                 1.6325
 IR Inten    --     11.3082                 2.2728                 1.0324

                     46                     47                     48
                      A                      A                      A
 Frequencies --   1169.5930              1181.2428              1196.1292
 Red. masses --      1.4386                 1.2520                 1.3648
 Frc consts  --      1.1594                 1.0293                 1.1505
 IR Inten    --      0.9107                 0.1649                 0.1735

                     49                     50                     51
                      A                      A                      A
 Frequencies --   1201.8738              1226.9840              1260.6502
 Red. masses --      1.3559                 2.0654                 1.9979
 Frc consts  --      1.1540                 1.8320                 1.8708
 IR Inten    --      1.2782                 0.8636                 2.3322

                     52                     53                     54
                      A                      A                      A
 Frequencies --   1287.9401              1292.4466              1310.2693
 Red. masses --      1.8559                11.5849                 1.6201
 Frc consts  --      1.8139                11.4016                 1.6388
 IR Inten    --      9.7056                23.2213                 0.1252

                     55                     56                     57
                      A                      A                      A
 Frequencies --   1334.9025              1360.1308              1380.2339
 Red. masses --      2.4938                 5.2166                 3.3218
 Frc consts  --      2.6183                 5.6859                 3.7284
 IR Inten    --      2.7474                 0.0774                 0.6489

                     58                     59                     60
                      A                      A                      A
 Frequencies --   1413.4294              1427.3856              1465.0511
 Red. masses --      1.2865                 2.4392                 2.1307
 Frc consts  --      1.5143                 2.9281                 2.6945
 IR Inten    --      1.3656                 0.5341                 2.7115

                     61                     62                     63
                      A                      A                      A
 Frequencies --   1474.0334              1482.5623              1485.2690
 Red. masses --      1.2119                 1.2313                 1.7432
 Frc consts  --      1.5514                 1.5945                 2.2657
 IR Inten    --     11.3448                 6.5288                 2.3596

                     64                     65                     66
                      A                      A                      A
 Frequencies --   1498.0593              1512.9140              1546.1108
 Red. masses --      1.3662                 2.2675                 3.0451
 Frc consts  --      1.8064                 3.0579                 4.2888
 IR Inten    --      7.6271                14.5827                11.7517

                     67                     68                     69
                      A                      A                      A
 Frequencies --   1585.8242              1635.7405              1672.0153
 Red. masses --      3.6952                 7.4203                 5.6704
 Frc consts  --      5.4752                11.6977                 9.3400
 IR Inten    --      3.1608                 0.0469                 8.0417

                     70                     71                     72
                      A                      A                      A
 Frequencies --   1683.8877              1697.2944              3030.7862
 Red. masses --      6.2329                 6.6099                 1.0358
 Frc consts  --     10.4128                11.2191                 5.6057
 IR Inten    --      8.4514                 3.9394                17.3029

                     73                     74                     75
                      A                      A                      A
 Frequencies --   3100.2533              3115.2208              3146.5502
 Red. masses --      1.1010                 1.1035                 1.0907
 Frc consts  --      6.2351                 6.3094                 6.3626
 IR Inten    --      4.8743                 6.5552                 1.8886

                     76                     77                     78
                      A                      A                      A
 Frequencies --   3148.6809              3149.9130              3165.4330
 Red. masses --      1.0901                 1.0904                 1.0900
 Frc consts  --      6.3676                 6.3746                 6.4350
 IR Inten    --      4.8952                 2.6033                 4.9215

                     79                     80                     81
                      A                      A                      A
 Frequencies --   3180.5037              3185.4254              3198.8427
 Red. masses --      1.0896                 1.0937                 1.0932
 Frc consts  --      6.4939                 6.5385                 6.5908
 IR Inten    --      0.9347                10.6959                 0.8482

                     82                     83                     84
                      A                      A                      A
 Frequencies --   3202.3949              3229.1606              3666.1136
 Red. masses --      1.0963                 1.0897                 1.0655
 Frc consts  --      6.6242                 6.6947                 8.4379
 IR Inten    --     10.4603                 5.7223               254.1881

 - Thermochemistry -
 -------------------
 Temperature   298.150 Kelvin.  Pressure   1.00000 Atm.
 Atom     1 has atomic number  6 and mass  12.00000

 Molecular mass:   225.09155 amu.
 Principal axes and moments of inertia in atomic units:
                           1         2         3
     Eigenvalues --  1923.208336178.914196553.81243
           X            0.99986  -0.00596   0.01583
           Y            0.00515   0.99869   0.05086
           Z           -0.01611  -0.05077   0.99858
 This molecule is an asymmetric top.
 Rotational symmetry number  1.
 Warning -- assumption of classical behavior for rotation
           may cause significant error
 Rotational temperatures (Kelvin)      0.04504     0.01402     0.01322
 Rotational constants (GHZ):           0.93840     0.29208     0.27537
    1 imaginary frequencies ignored.
 Zero-point vibrational energy     626842.4 (Joules/Mol)
                                  149.81894 (Kcal/Mol)
 Warning -- explicit consideration of  22 degrees of freedom as
           vibrations may cause significant error
 Vibrational temperatures:     58.28    64.03   103.87   134.99   145.20
          (Kelvin)            170.09   269.98   291.41   329.84   346.21
                              366.24   453.96   466.58   567.11   580.58
                              637.89   668.26   726.12   764.95   787.48
                              807.14   835.79   903.26   991.12  1061.85
                             1062.96  1102.24  1130.67  1153.60  1207.35
                             1227.09  1265.89  1304.18  1317.37  1370.37
                             1426.84  1439.07  1463.89  1468.80  1473.64
                             1476.48  1536.24  1541.12  1625.59  1682.78
                             1699.54  1720.96  1729.23  1765.36  1813.79
                             1853.06  1859.54  1885.19  1920.63  1956.92
                             1985.85  2033.61  2053.69  2107.88  2120.81
                             2133.08  2136.97  2155.37  2176.75  2224.51
                             2281.65  2353.47  2405.66  2422.74  2442.03
                             4360.63  4460.57  4482.11  4527.18  4530.25
                             4532.02  4554.35  4576.04  4583.12  4602.42
                             4607.53  4646.04  5274.72

 Zero-point correction=                           0.238752 (Hartree/Particle)
 Thermal correction to Energy=                    0.253346
 Thermal correction to Enthalpy=                  0.254290
 Thermal correction to Gibbs Free Energy=         0.195627
 Sum of electronic and zero-point Energies=           -729.455636
 Sum of electronic and thermal Energies=              -729.441042
 Sum of electronic and thermal Enthalpies=            -729.440098
 Sum of electronic and thermal Free Energies=         -729.498761

                     E (Thermal)             CV                S
                      KCal/Mol        Cal/Mol-Kelvin    Cal/Mol-Kelvin
 Total                  158.977             55.904            123.467
 Electronic               0.000              0.000              1.377
 Translational            0.889              2.981             42.136
 Rotational               0.889              2.981             32.721
 Vibrational            157.199             49.942             47.232
 Vibration     1          0.594              1.981              5.234
 Vibration     2          0.595              1.980              5.048
 Vibration     3          0.598              1.967              4.093
 Vibration     4          0.603              1.954              3.579
 Vibration     5          0.604              1.948              3.437
 Vibration     6          0.608              1.934              3.129
 Vibration     7          0.632              1.857              2.251
 Vibration     8          0.639              1.836              2.110
 Vibration     9          0.652              1.796              1.885
 Vibration    10          0.658              1.778              1.798
 Vibration    11          0.665              1.755              1.699
 Vibration    12          0.703              1.644              1.333
 Vibration    13          0.709              1.627              1.288
 Vibration    14          0.761              1.483              0.984
 Vibration    15          0.769              1.463              0.950
 Vibration    16          0.803              1.376              0.816
 Vibration    17          0.822              1.329              0.753
 Vibration    18          0.860              1.240              0.647
 Vibration    19          0.887              1.180              0.584
 Vibration    20          0.903              1.146              0.550
 Vibration    21          0.917              1.116              0.522
 Vibration    22          0.938              1.073              0.484

                           ! Non-Optimized Parameters !
 Normal termination of Gaussian 16 at Tue Nov 13 04:57:14 2018.
