 Gaussian 16, Revision A.03,
 Gaussian 16:  EM64L-G16RevA.03 25-Dec-2016

 ----------------------------------------------------------------------
 # m062x/6-31G(d,p) Opt=(TS,Loose,maxcycle=1000,CalcFC,NoEigenTest) Int
 (Grid=SG1) freq
 ----------------------------------------------------------------------

 -----
 Title
 -----
 Symbolic Z-matrix:
 Charge =  0 Multiplicity = 2

 SCF Done:  E(UM062X) =  -575.792848926     A.U. after   21 cycles
 SCF Done:  E(UM062X) =  -575.791435454     A.U. after   18 cycles
 SCF Done:  E(UM062X) =  -575.794999352     A.U. after   18 cycles
 SCF Done:  E(UM062X) =  -575.805771212     A.U. after   18 cycles
 SCF Done:  E(UM062X) =  -575.820623514     A.U. after   17 cycles
 SCF Done:  E(UM062X) =  -575.832546375     A.U. after   16 cycles
 SCF Done:  E(UM062X) =  -575.838397056     A.U. after   16 cycles
 SCF Done:  E(UM062X) =  -575.838958343     A.U. after   15 cycles
 SCF Done:  E(UM062X) =  -575.837854095     A.U. after   17 cycles
 SCF Done:  E(UM062X) =  -575.838579583     A.U. after   18 cycles
 SCF Done:  E(UM062X) =  -575.840013454     A.U. after   15 cycles
 SCF Done:  E(UM062X) =  -575.839940772     A.U. after   16 cycles
 SCF Done:  E(UM062X) =  -575.839996137     A.U. after   15 cycles
 SCF Done:  E(UM062X) =  -575.839918963     A.U. after   15 cycles
 SCF Done:  E(UM062X) =  -575.840014182     A.U. after   13 cycles
 SCF Done:  E(UM062X) =  -575.840017064     A.U. after   12 cycles
 SCF Done:  E(UM062X) =  -575.840014020     A.U. after   12 cycles
 SCF Done:  E(UM062X) =  -575.840016591     A.U. after   12 cycles
 SCF Done:  E(UM062X) =  -575.840016146     A.U. after   12 cycles
 Optimization completed.
    -- Stationary point found.
 Normal termination of Gaussian 16 at Tue Feb 26 11:02:25 2019.

 ----------------------------------------------------------------------
 #N Geom=AllCheck Guess=TCheck SCRF=Check GenChk UM062X/6-31G(d,p) Freq
 ----------------------------------------------------------------------

 Structure from the checkpoint file:  "/scratch/dinius.ab/QMscratch/Gau-9621.chk"
 -----
 Title
 -----
 Charge =  0 Multiplicity = 2

                         Standard orientation:
 ---------------------------------------------------------------------
 Center     Atomic      Atomic             Coordinates (Angstroms)
 Number     Number       Type             X           Y           Z
 ---------------------------------------------------------------------
      1          6           0        1.074013    1.939162   -0.371059
      2          6           0        0.014982    2.669788    0.202762
      3          6           0        0.931530    0.603746   -0.724290
      4          1           0        2.020083    2.435030   -0.569159
      5          6           0       -1.195051    2.063952    0.432855
      6          1           0        0.157561    3.715908    0.452066
      7          6           0       -1.386722    0.690590    0.123019
      8          1           0       -2.020470    2.621075    0.866465
      9          6           0       -0.315941   -0.058644   -0.438174
     10          6           0       -0.509233   -1.442892   -0.675368
     11          6           0       -1.714686   -2.041924   -0.406349
     12          1           0        0.319206   -2.040837   -1.038198
     13          6           0       -2.623917    0.045260    0.385789
     14          6           0       -2.789461   -1.289084    0.120400
     15          1           0       -3.434699    0.631039    0.808933
     16          1           0       -1.840320   -3.104048   -0.588272
     17          1           0       -3.738971   -1.772828    0.322561
     18          6           0        2.046922   -0.113348   -1.329583
     19          1           0        2.544510   -0.839022   -0.344316
     20          1           0        2.879256    0.515377   -1.642166
     21          1           0        1.801303   -0.877635   -2.064626
     22          8           0        2.866474   -1.399973    0.680025
     23          8           0        1.872737   -1.034067    1.560375
     24          1           0        2.204236   -0.211370    1.953500
 ---------------------------------------------------------------------

 SCF Done:  E(UM062X) =  -575.840016146     A.U. after    1 cycles

 The electronic state is 2-A.
 Alpha  occ. eigenvalues --  -19.70249 -19.69116 -10.56977 -10.56303 -10.56162
 Alpha  occ. eigenvalues --  -10.56055 -10.55993 -10.55754 -10.55506 -10.55449
 Alpha  occ. eigenvalues --  -10.55338 -10.55273 -10.55130  -1.26221  -0.98458
 Alpha  occ. eigenvalues --   -0.97115  -0.92830  -0.89095  -0.83834  -0.83103
 Alpha  occ. eigenvalues --   -0.77641  -0.70649  -0.69822  -0.65992  -0.61373
 Alpha  occ. eigenvalues --   -0.59202  -0.58367  -0.56948  -0.56652  -0.52290
 Alpha  occ. eigenvalues --   -0.51263  -0.50683  -0.49006  -0.48081  -0.46851
 Alpha  occ. eigenvalues --   -0.46624  -0.45152  -0.43507  -0.41121  -0.39287
 Alpha  occ. eigenvalues --   -0.39178  -0.38634  -0.35800  -0.35613  -0.29963
 Alpha  occ. eigenvalues --   -0.29609  -0.24522
 Alpha virt. eigenvalues --   -0.00714   0.02040   0.07305   0.12131   0.13217
 Alpha virt. eigenvalues --    0.14192   0.15134   0.16236   0.18119   0.19312
 Alpha virt. eigenvalues --    0.19641   0.22020   0.22629   0.23282   0.25345

  Beta  occ. eigenvalues --  -19.69978 -19.68173 -10.57053 -10.56263 -10.56181
  Beta  occ. eigenvalues --  -10.55948 -10.55907 -10.55786 -10.55434 -10.55332
  Beta  occ. eigenvalues --  -10.55272 -10.55147 -10.55093  -1.24445  -0.98326
  Beta  occ. eigenvalues --   -0.94633  -0.92677  -0.88732  -0.83746  -0.82823
  Beta  occ. eigenvalues --   -0.76637  -0.70551  -0.69727  -0.65656  -0.59940
  Beta  occ. eigenvalues --   -0.58999  -0.58214  -0.56585  -0.53713  -0.52037
  Beta  occ. eigenvalues --   -0.50662  -0.49465  -0.48617  -0.47825  -0.46637
  Beta  occ. eigenvalues --   -0.45905  -0.44807  -0.43287  -0.39662  -0.39136
  Beta  occ. eigenvalues --   -0.38762  -0.36395  -0.34330  -0.33312  -0.29444
  Beta  occ. eigenvalues --   -0.26644
  Beta virt. eigenvalues --   -0.08351   0.00087   0.02389   0.07867   0.12399
  Beta virt. eigenvalues --    0.13366   0.14499   0.15272   0.16482   0.18676
  Beta virt. eigenvalues --    0.19646   0.20011   0.22077   0.22794   0.23342

 Mulliken charges and spin densities:
               1          2
     1  C   -0.168888   0.159437
     2  C   -0.124447  -0.062660
     3  C    0.083540  -0.105624
     4  H    0.118660  -0.007400
     5  C   -0.138990   0.136560
     6  H    0.124888   0.001945
     7  C    0.057090  -0.038875
     8  H    0.123546  -0.006464
     9  C    0.050441   0.063057
    10  C   -0.123706  -0.026961
    11  C   -0.129763   0.033137
    12  H    0.124310   0.001278
    13  C   -0.141564   0.026698
    14  C   -0.124929  -0.024322
    15  H    0.120443  -0.001220
    16  H    0.124810  -0.001527
    17  H    0.123994   0.000976
    18  C   -0.466204   0.442442
    19  H    0.326831  -0.057994
    20  H    0.142866  -0.015962
    21  H    0.155193  -0.014570
    22  O   -0.310998   0.417460
    23  O   -0.301926   0.084495
    24  H    0.354802  -0.003906
 Sum of Mulliken charges =  -0.00000   1.00000

 Dipole moment (field-independent basis, Debye):
    X=             -0.7933    Y=              2.1761    Z=             -0.1580  Tot=              2.3215
 Quadrupole moment (field-independent basis, Debye-Ang):
   XX=            -71.3905   YY=            -71.4730   ZZ=            -75.5991
   XY=              7.0492   XZ=             -3.7363   YZ=              6.1630

  Exact polarizability: 165.971   1.905 157.939 -13.670   6.718  81.343
 Approx polarizability: 206.474   4.146 216.670 -29.911  15.993 106.071

 ******    1 imaginary frequencies (negative Signs) ******

                      1                      2                      3
                      A                      A                      A
 Frequencies --  -1863.4667                33.2602                70.4227
 Red. masses --      1.1271                 5.6959                 6.8688
 Frc consts  --      2.3059                 0.0037                 0.0201
 IR Inten    --   1875.1776                 1.2802                 0.9972

                      4                      5                      6
                      A                      A                      A
 Frequencies --    103.0939               126.0016               176.2838
 Red. masses --      5.6123                 4.2217                 3.9478
 Frc consts  --      0.0351                 0.0395                 0.0723
 IR Inten    --      7.2300                 0.7988                 0.6886

                      7                      8                      9
                      A                      A                      A
 Frequencies --    222.8217               289.8975               334.6228
 Red. masses --      4.5088                 3.5078                 4.0438
 Frc consts  --      0.1319                 0.1737                 0.2668
 IR Inten    --      3.4642                 2.4832                 2.5828

                     10                     11                     12
                      A                      A                      A
 Frequencies --    417.5374               419.6302               438.5876
 Red. masses --      1.0983                 3.0847                 2.8456
 Frc consts  --      0.1128                 0.3200                 0.3225
 IR Inten    --     73.8666                 3.4152                13.9191

                     13                     14                     15
                      A                      A                      A
 Frequencies --    478.5565               491.9338               514.0577
 Red. masses --      3.3486                 5.2093                 4.7860
 Frc consts  --      0.4518                 0.7428                 0.7452
 IR Inten    --      2.6420                 2.4139                 5.7449

                     16                     17                     18
                      A                      A                      A
 Frequencies --    534.2137               561.7714               584.1395
 Red. masses --      2.0304                 1.8387                 4.6541
 Frc consts  --      0.3414                 0.3419                 0.9357
 IR Inten    --     63.1580                10.4763                 3.3987

                     19                     20                     21
                      A                      A                      A
 Frequencies --    592.0357               654.2574               730.3309
 Red. masses --      3.7466                 3.0352                 4.5000
 Frc consts  --      0.7737                 0.7655                 1.4142
 IR Inten    --     13.7504                 0.1535                 3.0193

                     22                     23                     24
                      A                      A                      A
 Frequencies --    736.0200               787.3539               799.6324
 Red. masses --      1.3761                 1.8949                 4.9157
 Frc consts  --      0.4392                 0.6921                 1.8519
 IR Inten    --      2.8556                45.5181                 3.8142

                     25                     26                     27
                      A                      A                      A
 Frequencies --    809.4683               875.1756               888.3496
 Red. masses --      1.6373                 1.7346                 4.0486
 Frc consts  --      0.6321                 0.7828                 1.8824
 IR Inten    --     30.0947                 0.8521                 0.3390

                     28                     29                     30
                      A                      A                      A
 Frequencies --    916.2069               966.6657               991.5220
 Red. masses --      1.4364                 1.3640                 1.3523
 Frc consts  --      0.7104                 0.7510                 0.7833
 IR Inten    --      1.0569                 1.2630                 0.3028

                     31                     32                     33
                      A                      A                      A
 Frequencies --    996.1282              1001.9289              1059.8351
 Red. masses --      1.6736                 1.3320                 2.6387
 Frc consts  --      0.9785                 0.7878                 1.7463
 IR Inten    --      0.8684                 0.0755                 2.8298

                     34                     35                     36
                      A                      A                      A
 Frequencies --   1081.1171              1096.0009              1115.7633
 Red. masses --      1.9929                 2.0401                 2.2975
 Frc consts  --      1.3724                 1.4439                 1.6852
 IR Inten    --     38.2972                 2.7044                 9.9366

                     37                     38                     39
                      A                      A                      A
 Frequencies --   1129.7841              1170.8544              1189.1522
 Red. masses --      2.4430                 1.2685                 1.1596
 Frc consts  --      1.8373                 1.0246                 0.9661
 IR Inten    --     13.2523                 2.0119                 8.5885

                     40                     41                     42
                      A                      A                      A
 Frequencies --   1197.1565              1209.5539              1243.3767
 Red. masses --      1.0860                 1.3368                 2.0314
 Frc consts  --      0.9170                 1.1523                 1.8503
 IR Inten    --      5.7397                 5.9136                 4.6115

                     43                     44                     45
                      A                      A                      A
 Frequencies --   1277.6513              1309.2704              1390.3846
 Red. masses --      1.6506                 1.8177                 3.2383
 Frc consts  --      1.5875                 1.8359                 3.6884
 IR Inten    --      9.6018                 0.0295                 7.2019

                     46                     47                     48
                      A                      A                      A
 Frequencies --   1422.3673              1427.9675              1438.4628
 Red. masses --      1.1425                 6.3349                 2.0275
 Frc consts  --      1.3619                 7.6107                 2.4718
 IR Inten    --     38.8291                 4.2754                 0.4300

                     49                     50                     51
                      A                      A                      A
 Frequencies --   1470.3135              1490.9373              1493.5008
 Red. masses --      1.1046                 1.6146                 1.6812
 Frc consts  --      1.4070                 2.1146                 2.2094
 IR Inten    --     17.0768                14.5936                 6.4057

                     52                     53                     54
                      A                      A                      A
 Frequencies --   1515.4748              1574.4390              1647.7365
 Red. masses --      2.4377                 3.5425                 6.6951
 Frc consts  --      3.2986                 5.1738                10.7098
 IR Inten    --      1.0566                12.7794                 3.4879

                     55                     56                     57
                      A                      A                      A
 Frequencies --   1666.7033              1710.4229              3129.3516
 Red. masses --      5.6011                 6.1956                 1.0586
 Frc consts  --      9.1673                10.6793                 6.1078
 IR Inten    --      9.4023                 1.1202                 9.5141

                     58                     59                     60
                      A                      A                      A
 Frequencies --   3171.6617              3178.8785              3183.6124
 Red. masses --      1.0905                 1.0882                 1.0914
 Frc consts  --      6.4631                 6.4791                 6.5173
 IR Inten    --      3.0582                 1.6482                 9.9074

                     61                     62                     63
                      A                      A                      A
 Frequencies --   3188.2007              3212.2769              3215.7634
 Red. masses --      1.0899                 1.1078                 1.0965
 Frc consts  --      6.5271                 6.7352                 6.6808
 IR Inten    --      8.1304                11.2853                13.2128

                     64                     65                     66
                      A                      A                      A
 Frequencies --   3224.1182              3230.2370              3836.0197
 Red. masses --      1.0954                 1.0933                 1.0682
 Frc consts  --      6.7087                 6.7216                 9.2613
 IR Inten    --     15.4250                 4.7161                43.9488

 - Thermochemistry -
 -------------------
 Temperature   298.150 Kelvin.  Pressure   1.00000 Atm.
 Atom     1 has atomic number  6 and mass  12.00000

 Molecular mass:   175.07590 amu.
 Principal axes and moments of inertia in atomic units:
                           1         2         3
     Eigenvalues --  1734.356872440.159553430.59666
           X            0.99907   0.03660  -0.02275
           Y           -0.03602   0.99903   0.02540
           Z            0.02366  -0.02456   0.99942
 This molecule is an asymmetric top.
 Rotational symmetry number  1.
 Warning -- assumption of classical behavior for rotation
           may cause significant error
 Rotational temperatures (Kelvin)      0.04994     0.03550     0.02525
 Rotational constants (GHZ):           1.04058     0.73960     0.52607
    1 imaginary frequencies ignored.
 Zero-point vibrational energy     493102.2 (Joules/Mol)
                                  117.85426 (Kcal/Mol)
 Warning -- explicit consideration of  18 degrees of freedom as
           vibrations may cause significant error
 Vibrational temperatures:     47.85   101.32   148.33   181.29   253.63
          (Kelvin)            320.59   417.10   481.45   600.74   603.75
                              631.03   688.54   707.78   739.61   768.61
                              808.26   840.45   851.81   941.33  1050.78
                             1058.97  1132.83  1150.49  1164.64  1259.18
                             1278.14  1318.22  1390.82  1426.58  1433.21
                             1441.55  1524.87  1555.49  1576.90  1605.33
                             1625.51  1684.60  1710.92  1722.44  1740.28
                             1788.94  1838.26  1883.75  2000.45  2046.47
                             2054.53  2069.63  2115.45  2145.13  2148.81
                             2180.43  2265.27  2370.73  2398.01  2460.92
                             4502.44  4563.31  4573.70  4580.51  4587.11
                             4621.75  4626.77  4638.79  4647.59  5519.18

 Zero-point correction=                           0.187813 (Hartree/Particle)
 Thermal correction to Energy=                    0.199098
 Thermal correction to Enthalpy=                  0.200042
 Thermal correction to Gibbs Free Energy=         0.149321
 Sum of electronic and zero-point Energies=           -575.652203
 Sum of electronic and thermal Energies=              -575.640918
 Sum of electronic and thermal Enthalpies=            -575.639974
 Sum of electronic and thermal Free Energies=         -575.690695

                     E (Thermal)             CV                S
                      KCal/Mol        Cal/Mol-Kelvin    Cal/Mol-Kelvin
 Total                  124.936             44.321            106.752
 Electronic               0.000              0.000              1.377
 Translational            0.889              2.981             41.387
 Rotational               0.889              2.981             31.052
 Vibrational            123.158             38.359             32.936
 Vibration     1          0.594              1.983              5.625
 Vibration     2          0.598              1.968              4.142
 Vibration     3          0.605              1.947              3.395
 Vibration     4          0.611              1.927              3.006
 Vibration     5          0.628              1.872              2.367
 Vibration     6          0.649              1.806              1.936
 Vibration     7          0.686              1.693              1.475
 Vibration     8          0.716              1.606              1.238
 Vibration     9          0.781              1.432              0.900
 Vibration    10          0.782              1.428              0.893
 Vibration    11          0.799              1.386              0.831
 Vibration    12          0.835              1.298              0.714
 Vibration    13          0.848              1.268              0.679
 Vibration    14          0.869              1.219              0.624
 Vibration    15          0.889              1.174              0.578
 Vibration    16          0.917              1.114              0.520
 Vibration    17          0.941              1.066              0.478
 Vibration    18          0.950              1.049              0.464

 Optimization completed.
    -- Stationary point found.
 Normal termination of Gaussian 16 at Tue Feb 26 11:05:02 2019.
