 Gaussian 16, Revision A.03,
 Gaussian 16:  EM64L-G16RevA.03 25-Dec-2016

 ----------------------------------------------------------------------
 #m062x/6-311+g(2df,2p) Opt=(ModRedun,Loose,maxcycle=1000) Int(Grid=SG1
 ) freq
 ----------------------------------------------------------------------

 -----
 Title
 -----
 Symbolic Z-matrix:
 Charge =  0 Multiplicity = 2

 SCF Done:  E(UM062X) =  -575.980073230     A.U. after   19 cycles
 SCF Done:  E(UM062X) =  -576.017944804     A.U. after   19 cycles
 SCF Done:  E(UM062X) =  -576.026395820     A.U. after   20 cycles
 SCF Done:  E(UM062X) =  -576.022959595     A.U. after   21 cycles
 SCF Done:  E(UM062X) =  -576.030126988     A.U. after   18 cycles
 SCF Done:  E(UM062X) =  -576.033891576     A.U. after   18 cycles
 SCF Done:  E(UM062X) =  -576.024741750     A.U. after   19 cycles
 SCF Done:  E(UM062X) =  -576.044225656     A.U. after   18 cycles
 SCF Done:  E(UM062X) =  -576.046687380     A.U. after   17 cycles
 SCF Done:  E(UM062X) =  -576.048285163     A.U. after   17 cycles
 SCF Done:  E(UM062X) =  -576.053841247     A.U. after   15 cycles
 SCF Done:  E(UM062X) =  -576.053856846     A.U. after   15 cycles
 SCF Done:  E(UM062X) =  -576.053840795     A.U. after   15 cycles
 SCF Done:  E(UM062X) =  -576.053888421     A.U. after   15 cycles
 SCF Done:  E(UM062X) =  -576.053914480     A.U. after   14 cycles
 SCF Done:  E(UM062X) =  -576.053900161     A.U. after   14 cycles
 SCF Done:  E(UM062X) =  -576.053909320     A.U. after   14 cycles
 SCF Done:  E(UM062X) =  -576.053907610     A.U. after   13 cycles
 SCF Done:  E(UM062X) =  -576.053924013     A.U. after   14 cycles
 Optimization completed.
    -- Stationary point found.
 Normal termination of Gaussian 16 at Tue Feb  5 12:00:31 2019.

 ----------------------------------------------------------------------
 #N Geom=AllCheck Guess=TCheck SCRF=Check GenChk UM062X/6-311+G(2df,2p)
  Freq
 ----------------------------------------------------------------------

 Structure from the checkpoint file:  "/scratch/dinius.ab/QMscratch/Gau-32059.chk"
 -----
 Title
 -----
 Charge =  0 Multiplicity = 2

                         Standard orientation:
 ---------------------------------------------------------------------
 Center     Atomic      Atomic             Coordinates (Angstroms)
 Number     Number       Type             X           Y           Z
 ---------------------------------------------------------------------
      1          6           0        1.674658    0.619426   -1.165784
      2          6           0        1.202408    1.883478   -0.822948
      3          6           0        0.883688   -0.542287   -1.018272
      4          1           0        2.680130    0.509612   -1.548821
      5          6           0       -0.072828    2.038557   -0.327694
      6          1           0        1.843820    2.744751   -0.949463
      7          6           0       -0.927755    0.914882   -0.163018
      8          1           0       -0.447094    3.018168   -0.061144
      9          6           0       -0.469576   -0.381993   -0.503040
     10          6           0       -1.344065   -1.468298   -0.316230
     11          6           0       -2.610163   -1.284529    0.180459
     12          1           0       -1.019616   -2.468842   -0.561578
     13          6           0       -2.236022    1.078657    0.344679
     14          6           0       -3.063756    0.002628    0.515204
     15          1           0       -2.571610    2.076031    0.599279
     16          1           0       -3.262658   -2.135389    0.317711
     17          1           0       -4.061314    0.136845    0.908145
     18          6           0        1.431660   -1.775765   -1.345611
     19          1           0        2.347902   -1.233239    0.936081
     20          1           0        2.436427   -1.824709   -1.739900
     21          1           0        0.890195   -2.703410   -1.264355
     22          8           0        2.650353   -0.673561    1.663842
     23          8           0        1.455571   -0.006335    2.033364
     24          1           0        1.506938    0.810807    1.519929
 ---------------------------------------------------------------------

 SCF Done:  E(UM062X) =  -576.053924013     A.U. after    1 cycles

 The electronic state is 2-A.
 Alpha  occ. eigenvalues --  -19.66752 -19.66732 -10.57141 -10.56741 -10.56380
 Alpha  occ. eigenvalues --  -10.56197 -10.56187 -10.56031 -10.55790 -10.55414
 Alpha  occ. eigenvalues --  -10.55364 -10.55252 -10.55156  -1.24771  -1.00081
 Alpha  occ. eigenvalues --   -0.99492  -0.94528  -0.90721  -0.85485  -0.84624
 Alpha  occ. eigenvalues --   -0.78396  -0.72061  -0.71220  -0.67015  -0.61666
 Alpha  occ. eigenvalues --   -0.60788  -0.59893  -0.58379  -0.56174  -0.54138
 Alpha  occ. eigenvalues --   -0.52576  -0.50826  -0.50421  -0.49879  -0.48518
 Alpha  occ. eigenvalues --   -0.48276  -0.46620  -0.45171  -0.42077  -0.40563
 Alpha  occ. eigenvalues --   -0.40373  -0.39086  -0.37298  -0.36705  -0.31960
 Alpha  occ. eigenvalues --   -0.31139  -0.23781
 Alpha virt. eigenvalues --   -0.02327  -0.00387   0.00589   0.01273   0.01520
 Alpha virt. eigenvalues --    0.03050   0.03072   0.03759   0.05203   0.05510
 Alpha virt. eigenvalues --    0.05706   0.05761   0.07008   0.07251   0.08344

  Beta  occ. eigenvalues --  -19.66738 -19.66719 -10.57280 -10.56660 -10.56432
  Beta  occ. eigenvalues --  -10.56022 -10.55982 -10.55865 -10.55633 -10.55378
  Beta  occ. eigenvalues --  -10.55348 -10.55265 -10.55179  -1.24735  -0.99869
  Beta  occ. eigenvalues --   -0.99429  -0.94258  -0.90173  -0.85286  -0.84264
  Beta  occ. eigenvalues --   -0.76944  -0.71882  -0.71026  -0.66526  -0.61626
  Beta  occ. eigenvalues --   -0.60406  -0.59728  -0.58102  -0.56102  -0.53825
  Beta  occ. eigenvalues --   -0.52261  -0.50545  -0.50294  -0.49622  -0.47981
  Beta  occ. eigenvalues --   -0.47811  -0.46307  -0.44905  -0.41073  -0.40472
  Beta  occ. eigenvalues --   -0.40182  -0.37505  -0.37072  -0.36261  -0.31096
  Beta  occ. eigenvalues --   -0.29447
  Beta virt. eigenvalues --   -0.08506  -0.01410   0.00287   0.00553   0.01219
  Beta virt. eigenvalues --    0.01511   0.03071   0.03084   0.03786   0.05114
  Beta virt. eigenvalues --    0.05548   0.05695   0.05741   0.07014   0.07512

 Mulliken charges and spin densities:
               1          2
     1  C   -0.366956   0.411534
     2  C   -0.463254  -0.154697
     3  C    0.329816  -0.360076
     4  H    0.172684  -0.023783
     5  C   -0.159144   0.362229
     6  H    0.158863   0.006586
     7  C    0.195270  -0.188901
     8  H    0.170166  -0.022118
     9  C    0.769549   0.183512
    10  C   -0.369098  -0.048338
    11  C   -0.473258   0.088336
    12  H    0.164138   0.001164
    13  C    0.003652   0.107153
    14  C   -0.365546  -0.050249
    15  H    0.156118  -0.003255
    16  H    0.149647  -0.005446
    17  H    0.151176   0.002960
    18  C   -0.669779   0.764334
    19  H    0.290834  -0.003985
    20  H    0.187685  -0.036390
    21  H    0.186897  -0.038551
    22  O   -0.289515   0.005004
    23  O   -0.174029   0.005696
    24  H    0.244086  -0.002721
 Sum of Mulliken charges =  -0.00000   1.00000

 Dipole moment (field-independent basis, Debye):
    X=             -1.3136    Y=              0.5295    Z=             -2.4273  Tot=              2.8103
 Quadrupole moment (field-independent basis, Debye-Ang):
   XX=            -73.4772   YY=            -65.9749   ZZ=            -87.8673
   XY=              1.4133   XZ=            -10.5305   YZ=              3.5439

  Exact polarizability: 176.394  -2.825 162.464 -28.547   9.721  97.120
 Approx polarizability: 221.426  -3.020 226.913 -38.763  14.612 129.261

                      1                      2                      3
                      A                      A                      A
 Frequencies --     43.0338                54.6509                95.0253
 Red. masses --      7.8299                 5.5653                 5.2422
 Frc consts  --      0.0085                 0.0098                 0.0279
 IR Inten    --      1.7466                 0.6359                 3.7089

                      4                      5                      6
                      A                      A                      A
 Frequencies --    103.3250               129.2874               153.4090
 Red. masses --      3.8879                 7.2077                 5.6320
 Frc consts  --      0.0245                 0.0710                 0.0781
 IR Inten    --      0.2865                 1.2050                 6.4607

                      7                      8                      9
                      A                      A                      A
 Frequencies --    184.1309               242.1056               322.9280
 Red. masses --      3.9274                 3.4913                 3.6455
 Frc consts  --      0.0785                 0.1206                 0.2240
 IR Inten    --      1.9750                 1.0081                 0.8412

                     10                     11                     12
                      A                      A                      A
 Frequencies --    404.9902               420.9491               454.8435
 Red. masses --      1.4105                 1.7139                 3.1543
 Frc consts  --      0.1363                 0.1789                 0.3845
 IR Inten    --     45.8236                32.3304                 0.7544

                     13                     14                     15
                      A                      A                      A
 Frequencies --    467.0479               480.3307               506.8091
 Red. masses --      2.2901                 6.4529                 5.3448
 Frc consts  --      0.2943                 0.8772                 0.8089
 IR Inten    --      4.1048                 0.0750                 0.2966

                     16                     17                     18
                      A                      A                      A
 Frequencies --    523.7786               581.6759               583.0687
 Red. masses --      2.0118                 4.2529                 1.6290
 Frc consts  --      0.3252                 0.8478                 0.3263
 IR Inten    --      2.3099                 4.8729                 2.3759

                     19                     20                     21
                      A                      A                      A
 Frequencies --    611.5462               648.0220               728.1634
 Red. masses --      1.0700                 3.0358                 4.9511
 Frc consts  --      0.2358                 0.7511                 1.5467
 IR Inten    --    222.9068                 3.3019                 1.7820

                     22                     23                     24
                      A                      A                      A
 Frequencies --    748.5695               796.5136               799.7909
 Red. masses --      1.3407                 2.0090                 3.6578
 Frc consts  --      0.4426                 0.7510                 1.3786
 IR Inten    --      0.1484                34.6717                11.8653

                     25                     26                     27
                      A                      A                      A
 Frequencies --    806.0823               831.7197               890.2679
 Red. masses --      1.4103                 1.6005                 3.7667
 Frc consts  --      0.5399                 0.6523                 1.7589
 IR Inten    --     42.6495                62.3292                 0.2364

                     28                     29                     30
                      A                      A                      A
 Frequencies --    892.2924               918.9091               980.3342
 Red. masses --      1.8420                 1.4697                 1.7830
 Frc consts  --      0.8641                 0.7312                 1.0096
 IR Inten    --      5.7890                 0.4346                 0.3694

                     31                     32                     33
                      A                      A                      A
 Frequencies --    994.5250              1010.2299              1035.1925
 Red. masses --      1.3603                 1.3149                 1.3264
 Frc consts  --      0.7927                 0.7907                 0.8375
 IR Inten    --      0.2895                 0.1868                 0.0104

                     34                     35                     36
                      A                      A                      A
 Frequencies --   1048.4464              1055.5295              1102.4502
 Red. masses --     14.6131                 2.8378                 2.2543
 Frc consts  --      9.4642                 1.8628                 1.6143
 IR Inten    --      1.3535                 3.4801                 0.3143

                     37                     38                     39
                      A                      A                      A
 Frequencies --   1125.6191              1150.7335              1167.7188
 Red. masses --      1.8857                 1.7900                 1.3764
 Frc consts  --      1.4077                 1.3965                 1.1058
 IR Inten    --      0.9964                 3.1951                 1.1058

                     40                     41                     42
                      A                      A                      A
 Frequencies --   1187.4216              1221.4560              1248.1000
 Red. masses --      1.3457                 1.6552                 1.9779
 Frc consts  --      1.1179                 1.4550                 1.8153
 IR Inten    --      0.0158                11.1013                 3.1687

                     43                     44                     45
                      A                      A                      A
 Frequencies --   1304.0425              1352.9397              1376.5209
 Red. masses --      1.8172                 2.9948                 3.9705
 Frc consts  --      1.8207                 3.2298                 4.4327
 IR Inten    --      0.7462                 1.0829                 3.6184

                     46                     47                     48
                      A                      A                      A
 Frequencies --   1424.9167              1429.1983              1470.1460
 Red. masses --      2.1020                 1.1491                 1.1615
 Frc consts  --      2.5145                 1.3829                 1.4791
 IR Inten    --      2.4617                31.3000                22.6532

                     49                     50                     51
                      A                      A                      A
 Frequencies --   1473.5795              1483.3037              1524.1959
 Red. masses --      1.9206                 2.1184                 1.4856
 Frc consts  --      2.4572                 2.7462                 2.0335
 IR Inten    --      2.3067                 0.3772                 3.3342

                     52                     53                     54
                      A                      A                      A
 Frequencies --   1538.0701              1589.2166              1618.6833
 Red. masses --      2.4449                 4.3279                 5.3675
 Frc consts  --      3.4077                 6.4401                 8.2859
 IR Inten    --     13.3043                 0.2529                 5.9522

                     55                     56                     57
                      A                      A                      A
 Frequencies --   1678.4048              3146.4986              3153.4504
 Red. masses --      5.8626                 1.0580                 1.0902
 Frc consts  --      9.7305                 6.1713                 6.3875
 IR Inten    --      1.9016                 1.7718                 1.9063

                     58                     59                     60
                      A                      A                      A
 Frequencies --   3156.8988              3177.3901              3187.4202
 Red. masses --      1.0889                 1.0890                 1.0867
 Frc consts  --      6.3940                 6.4778                 6.5051
 IR Inten    --      1.4697                 4.4731                 0.2790

                     61                     62                     63
                      A                      A                      A
 Frequencies --   3191.3724              3200.7644              3211.4176
 Red. masses --      1.0959                 1.0929                 1.0971
 Frc consts  --      6.5761                 6.5970                 6.6662
 IR Inten    --      5.4187                 6.4427                 8.5610

                     64                     65                     66
                      A                      A                      A
 Frequencies --   3255.0881              3824.4030              3851.4255
 Red. masses --      1.1114                 1.0678                 1.0681
 Frc consts  --      6.9380                 9.2016                 9.3348
 IR Inten    --      1.5776                30.7071                88.0503

 - Thermochemistry -
 -------------------
 Temperature   298.150 Kelvin.  Pressure   1.00000 Atm.
 Atom     1 has atomic number  6 and mass  12.00000

 Molecular mass:   175.07590 amu.
 Principal axes and moments of inertia in atomic units:
                           1         2         3
     Eigenvalues --  1622.741292761.020603013.20896
           X            0.99950   0.00321  -0.03153
           Y           -0.00091   0.99735   0.07277
           Z            0.03168  -0.07271   0.99685
 This molecule is an asymmetric top.
 Rotational symmetry number  1.
 Warning -- assumption of classical behavior for rotation
           may cause significant error
 Rotational temperatures (Kelvin)      0.05338     0.03137     0.02874
 Rotational constants (GHZ):           1.11216     0.65365     0.59894
 Zero-point vibrational energy     504646.9 (Joules/Mol)
                                  120.61350 (Kcal/Mol)
 Warning -- explicit consideration of  19 degrees of freedom as
           vibrations may cause significant error
 Vibrational temperatures:     61.92    78.63   136.72   148.66   186.02
          (Kelvin)            220.72   264.92   348.34   464.62   582.69
                              605.65   654.42   671.98   691.09   729.19
                              753.60   836.90   838.91   879.88   932.36
                             1047.66  1077.02  1146.01  1150.72  1159.77
                             1196.66  1280.90  1283.81  1322.11  1410.48
                             1430.90  1453.50  1489.41  1508.48  1518.67
                             1586.18  1619.51  1655.65  1680.09  1708.43
                             1757.40  1795.74  1876.23  1946.58  1980.51
                             2050.14  2056.30  2115.21  2120.15  2134.14
                             2192.98  2212.94  2286.53  2328.92  2414.85
                             4527.11  4537.11  4542.07  4571.56  4585.99
                             4591.67  4605.19  4620.51  4683.35  5502.46
                             5541.34

 Zero-point correction=                           0.192210 (Hartree/Particle)
 Thermal correction to Energy=                    0.204457
 Thermal correction to Enthalpy=                  0.205401
 Thermal correction to Gibbs Free Energy=         0.152538
 Sum of electronic and zero-point Energies=           -575.861714
 Sum of electronic and thermal Energies=              -575.849467
 Sum of electronic and thermal Enthalpies=            -575.848523
 Sum of electronic and thermal Free Energies=         -575.901386

                     E (Thermal)             CV                S
                      KCal/Mol        Cal/Mol-Kelvin    Cal/Mol-Kelvin
 Total                  128.299             46.651            111.259
 Electronic               0.000              0.000              1.377
 Translational            0.889              2.981             41.387
 Rotational               0.889              2.981             30.980
 Vibrational            126.521             40.689             37.515
 Vibration     1          0.595              1.980              5.114
 Vibration     2          0.596              1.976              4.642
 Vibration     3          0.603              1.953              3.554
 Vibration     4          0.605              1.947              3.391
 Vibration     5          0.612              1.924              2.957
 Vibration     6          0.619              1.899              2.630
 Vibration     7          0.631              1.861              2.286
 Vibration     8          0.658              1.776              1.787
 Vibration     9          0.708              1.630              1.295
 Vibration    10          0.770              1.459              0.944
 Vibration    11          0.783              1.425              0.889
 Vibration    12          0.813              1.350              0.781
 Vibration    13          0.824              1.323              0.746
 Vibration    14          0.837              1.294              0.709
 Vibration    15          0.862              1.235              0.641
 Vibration    16          0.879              1.197              0.601
 Vibration    17          0.938              1.071              0.482
 Vibration    18          0.940              1.068              0.480
 Vibration    19          0.971              1.007              0.430

                           ! Non-Optimized Parameters !
 Normal termination of Gaussian 16 at Tue Feb  5 12:43:17 2019.
