 Gaussian 16, Revision A.03,
 Gaussian 16:  EM64L-G16RevA.03 25-Dec-2016

 ----------------------------------------------------------------------
 # m062x/6-31G(d,p) Opt=(TS,Loose,maxcycle=1000,CalcFC,NoEigenTest) Int
 (Grid=SG1) freq
 ----------------------------------------------------------------------

 -----
 Title
 -----
 Symbolic Z-matrix:
 Charge =  0 Multiplicity = 2

 SCF Done:  E(UM062X) =  -575.862927683     A.U. after   18 cycles
 SCF Done:  E(UM062X) =  -575.863370747     A.U. after   14 cycles
 SCF Done:  E(UM062X) =  -575.863437607     A.U. after   14 cycles
 SCF Done:  E(UM062X) =  -575.863428828     A.U. after   13 cycles
 SCF Done:  E(UM062X) =  -575.863349653     A.U. after   14 cycles
 SCF Done:  E(UM062X) =  -575.863188440     A.U. after   14 cycles
 SCF Done:  E(UM062X) =  -575.863114482     A.U. after   14 cycles
 SCF Done:  E(UM062X) =  -575.863048529     A.U. after   14 cycles
 SCF Done:  E(UM062X) =  -575.863109434     A.U. after   15 cycles
 SCF Done:  E(UM062X) =  -575.863380821     A.U. after   15 cycles
 SCF Done:  E(UM062X) =  -575.861388380     A.U. after   13 cycles
 SCF Done:  E(UM062X) =  -575.861419463     A.U. after   14 cycles
 SCF Done:  E(UM062X) =  -575.861431123     A.U. after   10 cycles
 SCF Done:  E(UM062X) =  -575.861502857     A.U. after   14 cycles
 SCF Done:  E(UM062X) =  -575.861464818     A.U. after   13 cycles
 SCF Done:  E(UM062X) =  -575.861458197     A.U. after   10 cycles
 SCF Done:  E(UM062X) =  -575.861447603     A.U. after   13 cycles
 SCF Done:  E(UM062X) =  -575.861453254     A.U. after   10 cycles
 SCF Done:  E(UM062X) =  -575.861449527     A.U. after   11 cycles
 Optimization completed.
    -- Stationary point found.
 Normal termination of Gaussian 16 at Tue Feb 26 09:20:15 2019.

 ----------------------------------------------------------------------
 #N Geom=AllCheck Guess=TCheck SCRF=Check GenChk UM062X/6-31G(d,p) Freq
 ----------------------------------------------------------------------

 Structure from the checkpoint file:  "/scratch/dinius.ab/QMscratch/Gau-220301.chk"
 -----
 Title
 -----
 Charge =  0 Multiplicity = 2

                         Standard orientation:
 ---------------------------------------------------------------------
 Center     Atomic      Atomic             Coordinates (Angstroms)
 Number     Number       Type             X           Y           Z
 ---------------------------------------------------------------------
      1          6           0        1.615368    1.384823   -0.653036
      2          6           0        0.934646    2.365331    0.071655
      3          6           0        1.013563    0.154299   -1.004696
      4          1           0        2.641698    1.558162   -0.961440
      5          6           0       -0.369589    2.159453    0.468110
      6          1           0        1.438017    3.293119    0.320340
      7          6           0       -1.039413    0.940722    0.153433
      8          1           0       -0.906494    2.915873    1.030969
      9          6           0       -0.362629   -0.077111   -0.574041
     10          6           0       -1.051810   -1.282075   -0.838243
     11          6           0       -2.349632   -1.468086   -0.419400
     12          1           0       -0.552407   -2.081666   -1.372190
     13          6           0       -2.377013    0.724737    0.572024
     14          6           0       -3.023260   -0.453359    0.290512
     15          1           0       -2.880695    1.511574    1.125439
     16          1           0       -2.853303   -2.405533   -0.628973
     17          1           0       -4.044686   -0.607073    0.620151
     18          6           0        1.754018   -0.784661   -1.723862
     19          1           0        2.690332   -1.189963    0.432310
     20          1           0        2.756156   -0.538540   -2.057045
     21          1           0        1.357805   -1.743918   -2.025119
     22          8           0        2.613501   -1.146431    1.399358
     23          8           0        1.272732   -1.596004    1.573555
     24          1           0        0.798229   -0.756992    1.677517
 ---------------------------------------------------------------------

 SCF Done:  E(UM062X) =  -575.861449527     A.U. after    1 cycles

 The electronic state is 2-A.
 Alpha  occ. eigenvalues --  -19.67408 -19.67190 -10.57512 -10.57224 -10.56924
 Alpha  occ. eigenvalues --  -10.56678 -10.56672 -10.56592 -10.56131 -10.56118
 Alpha  occ. eigenvalues --  -10.56029 -10.55946 -10.55910  -1.22981  -0.99083
 Alpha  occ. eigenvalues --   -0.98047  -0.93533  -0.89777  -0.84605  -0.83812
 Alpha  occ. eigenvalues --   -0.77565  -0.71247  -0.70358  -0.66248  -0.59931
 Alpha  occ. eigenvalues --   -0.59434  -0.59108  -0.57350  -0.54720  -0.53305
 Alpha  occ. eigenvalues --   -0.51836  -0.49968  -0.48999  -0.48677  -0.47434
 Alpha  occ. eigenvalues --   -0.47253  -0.45882  -0.44343  -0.41044  -0.39824
 Alpha  occ. eigenvalues --   -0.39574  -0.37651  -0.35890  -0.34821  -0.30820
 Alpha  occ. eigenvalues --   -0.30194  -0.22803
 Alpha virt. eigenvalues --   -0.00562   0.01442   0.07237   0.12217   0.12799
 Alpha virt. eigenvalues --    0.13524   0.14306   0.15019   0.16305   0.18584
 Alpha virt. eigenvalues --    0.18848   0.21478   0.21739   0.22412   0.23007

  Beta  occ. eigenvalues --  -19.67406 -19.67164 -10.57671 -10.57138 -10.56982
  Beta  occ. eigenvalues --  -10.56443 -10.56383 -10.56223 -10.56210 -10.56083
  Beta  occ. eigenvalues --  -10.56025 -10.55972 -10.55905  -1.22936  -0.98865
  Beta  occ. eigenvalues --   -0.97996  -0.93257  -0.89221  -0.84411  -0.83423
  Beta  occ. eigenvalues --   -0.76057  -0.71073  -0.70165  -0.65740  -0.59579
  Beta  occ. eigenvalues --   -0.59360  -0.58929  -0.57066  -0.54616  -0.52960
  Beta  occ. eigenvalues --   -0.51529  -0.49671  -0.48717  -0.48450  -0.47112
  Beta  occ. eigenvalues --   -0.46705  -0.45548  -0.44076  -0.39996  -0.39716
  Beta  occ. eigenvalues --   -0.39391  -0.36283  -0.35193  -0.34673  -0.30033
  Beta  occ. eigenvalues --   -0.28378
  Beta virt. eigenvalues --   -0.06991   0.00800   0.02213   0.08760   0.12357
  Beta virt. eigenvalues --    0.12928   0.13895   0.14546   0.15433   0.16626
  Beta virt. eigenvalues --    0.18785   0.19243   0.21610   0.21971   0.22701

 Mulliken charges and spin densities:
               1          2
     1  C   -0.145554   0.343107
     2  C   -0.122106  -0.144728
     3  C    0.086234  -0.212549
     4  H    0.123203  -0.015714
     5  C   -0.141094   0.316985
     6  H    0.131001   0.004279
     7  C    0.045595  -0.082714
     8  H    0.127760  -0.014521
     9  C    0.000375   0.123856
    10  C   -0.119200  -0.054344
    11  C   -0.131565   0.071665
    12  H    0.123522   0.002745
    13  C   -0.145895   0.058447
    14  C   -0.121963  -0.048043
    15  H    0.124864  -0.002635
    16  H    0.128406  -0.003298
    17  H    0.127539   0.001867
    18  C   -0.340876   0.712891
    19  H    0.345616   0.001323
    20  H    0.134425  -0.035279
    21  H    0.138432  -0.035727
    22  O   -0.364446   0.012002
    23  O   -0.356925   0.000252
    24  H    0.352650   0.000133
 Sum of Mulliken charges =  -0.00000   1.00000

 Dipole moment (field-independent basis, Debye):
    X=             -1.3890    Y=              1.6646    Z=             -1.8103  Tot=              2.8244
 Quadrupole moment (field-independent basis, Debye-Ang):
   XX=            -70.2169   YY=            -72.4144   ZZ=            -80.0381
   XY=              4.9679   XZ=            -10.1000   YZ=              9.1568

  Exact polarizability: 162.053  12.515 133.108 -32.715  31.028  76.086
 Approx polarizability: 205.270  16.272 182.601 -43.793  46.507 103.912

 ******    1 imaginary frequencies (negative Signs) ******

                      1                      2                      3
                      A                      A                      A
 Frequencies --    -73.9674                31.5374                43.0087
 Red. masses --      5.6418                 5.6463                 5.9013
 Frc consts  --      0.0182                 0.0033                 0.0064
 IR Inten    --      1.1863                 0.6184                 0.1002

                      4                      5                      6
                      A                      A                      A
 Frequencies --     93.6921               126.2410               141.0377
 Red. masses --      3.8828                 5.8629                 5.4176
 Frc consts  --      0.0201                 0.0551                 0.0635
 IR Inten    --      0.4297                 8.2424                 1.9538

                      7                      8                      9
                      A                      A                      A
 Frequencies --    173.8297               244.5500               315.2642
 Red. masses --      3.9276                 3.4686                 3.4839
 Frc consts  --      0.0699                 0.1222                 0.2040
 IR Inten    --      1.0116                 1.6254                 1.1364

                     10                     11                     12
                      A                      A                      A
 Frequencies --    344.4785               412.7601               442.7875
 Red. masses --      1.0701                 2.7615                 2.8031
 Frc consts  --      0.0748                 0.2772                 0.3238
 IR Inten    --     90.7130                 4.1840                 0.1762

                     13                     14                     15
                      A                      A                      A
 Frequencies --    456.5052               479.3619               503.2502
 Red. masses --      2.1309                 6.4196                 5.5951
 Frc consts  --      0.2616                 0.8691                 0.8349
 IR Inten    --      2.0327                 0.0747                 0.2279

                     16                     17                     18
                      A                      A                      A
 Frequencies --    510.2750               570.5932               580.0002
 Red. masses --      1.9359                 1.8122                 5.5341
 Frc consts  --      0.2970                 0.3476                 1.0969
 IR Inten    --      1.0829                 0.2077                 5.0396

                     19                     20                     21
                      A                      A                      A
 Frequencies --    594.4094               640.4770               727.9738
 Red. masses --      1.1046                 2.8907                 4.8443
 Frc consts  --      0.2299                 0.6987                 1.5126
 IR Inten    --    263.2060                 6.8224                 1.5616

                     22                     23                     24
                      A                      A                      A
 Frequencies --    736.7495               753.7544               783.1290
 Red. masses --      1.4075                 1.4185                 1.6547
 Frc consts  --      0.4501                 0.4748                 0.5979
 IR Inten    --      0.0860                38.6149                53.5868

                     25                     26                     27
                      A                      A                      A
 Frequencies --    795.8557               808.2867               877.5862
 Red. masses --      5.2440                 2.0395                 1.5073
 Frc consts  --      1.9570                 0.7850                 0.6840
 IR Inten    --      1.4341                54.0817                 3.0633

                     28                     29                     30
                      A                      A                      A
 Frequencies --    888.0702               906.2097               964.7816
 Red. masses --      3.7110                 1.4613                 1.7327
 Frc consts  --      1.7244                 0.7071                 0.9502
 IR Inten    --      0.0607                 0.2605                 0.3715

                     31                     32                     33
                      A                      A                      A
 Frequencies --    969.2972               982.4656              1010.8598
 Red. masses --      1.3616                 1.3261                 1.3027
 Frc consts  --      0.7537                 0.7542                 0.7843
 IR Inten    --      1.1457                 0.6546                 0.0703

                     34                     35                     36
                      A                      A                      A
 Frequencies --   1043.6786              1062.9502              1097.6879
 Red. masses --     14.4894                 2.7527                 2.2214
 Frc consts  --      9.2990                 1.8325                 1.5770
 IR Inten    --      3.6117                 2.7115                 1.8145

                     37                     38                     39
                      A                      A                      A
 Frequencies --   1127.5261              1155.9575              1171.8420
 Red. masses --      1.8304                 1.6599                 1.3315
 Frc consts  --      1.3710                 1.3069                 1.0773
 IR Inten    --      0.8531                 3.1692                 3.2530

                     40                     41                     42
                      A                      A                      A
 Frequencies --   1192.2239              1224.1079              1252.4117
 Red. masses --      1.3093                 1.7187                 1.8472
 Frc consts  --      1.0965                 1.5174                 1.7071
 IR Inten    --      0.3324                16.7144                 6.4340

                     43                     44                     45
                      A                      A                      A
 Frequencies --   1298.1135              1365.9533              1391.1215
 Red. masses --      1.7766                 3.4161                 3.3347
 Frc consts  --      1.7639                 3.7554                 3.8023
 IR Inten    --      2.3193                 1.6791                 6.0158

                     46                     47                     48
                      A                      A                      A
 Frequencies --   1413.9872              1427.9221              1469.3717
 Red. masses --      1.1329                 2.4070                 1.0878
 Frc consts  --      1.3345                 2.8916                 1.3838
 IR Inten    --     69.6581                 0.1224                17.2035

                     49                     50                     51
                      A                      A                      A
 Frequencies --   1480.0108              1489.9209              1513.9057
 Red. masses --      2.1732                 2.2671                 1.4139
 Frc consts  --      2.8047                 2.9652                 1.9093
 IR Inten    --      0.8295                 1.0885                 3.1954

                     52                     53                     54
                      A                      A                      A
 Frequencies --   1549.0370              1607.6968              1639.0857
 Red. masses --      3.2789                 4.8134                 5.7187
 Frc consts  --      4.6355                 7.3301                 9.0521
 IR Inten    --     16.3944                 0.1654                 6.7811

                     55                     56                     57
                      A                      A                      A
 Frequencies --   1697.4241              3170.7859              3187.5287
 Red. masses --      6.0627                 1.0571                 1.0876
 Frc consts  --     10.2920                 6.2619                 6.5106
 IR Inten    --      3.3862                 3.2711                 2.8482

                     58                     59                     60
                      A                      A                      A
 Frequencies --   3193.7663              3198.0826              3207.8327
 Red. masses --      1.0874                 1.0912                 1.0913
 Frc consts  --      6.5353                 6.5757                 6.6164
 IR Inten    --      1.1884                 6.5372                10.0288

                     61                     62                     63
                      A                      A                      A
 Frequencies --   3214.7816              3225.9174              3230.6088
 Red. masses --      1.0962                 1.0929                 1.0971
 Frc consts  --      6.6748                 6.7010                 6.7462
 IR Inten    --     11.6077                11.6179                 9.7704

                     64                     65                     66
                      A                      A                      A
 Frequencies --   3281.6261              3794.2696              3856.4209
 Red. masses --      1.1128                 1.0685                 1.0686
 Frc consts  --      7.0607                 9.0629                 9.3637
 IR Inten    --      3.1742                66.8075                18.6863

 - Thermochemistry -
 -------------------
 Temperature   298.150 Kelvin.  Pressure   1.00000 Atm.
 Atom     1 has atomic number  6 and mass  12.00000

 Molecular mass:   175.07590 amu.
 Principal axes and moments of inertia in atomic units:
                           1         2         3
     Eigenvalues --  1728.425092582.608413149.81342
           X            0.99931   0.02265  -0.02933
           Y           -0.02059   0.99744   0.06852
           Z            0.03081  -0.06787   0.99722
 This molecule is an asymmetric top.
 Rotational symmetry number  1.
 Warning -- assumption of classical behavior for rotation
           may cause significant error
 Rotational temperatures (Kelvin)      0.05011     0.03354     0.02750
 Rotational constants (GHZ):           1.04415     0.69881     0.57297
    1 imaginary frequencies ignored.
 Zero-point vibrational energy     503284.7 (Joules/Mol)
                                  120.28794 (Kcal/Mol)
 Warning -- explicit consideration of  18 degrees of freedom as
           vibrations may cause significant error
 Vibrational temperatures:     45.38    61.88   134.80   181.63   202.92
          (Kelvin)            250.10   351.85   453.59   495.63   593.87
                              637.07   656.81   689.69   724.06   734.17
                              820.96   834.49   855.22   921.50  1047.39
                             1060.02  1084.48  1126.75  1145.06  1162.94
                             1262.65  1277.74  1303.83  1388.11  1394.60
                             1413.55  1454.40  1501.62  1529.35  1579.33
                             1622.26  1663.16  1686.02  1715.34  1761.22
                             1801.94  1867.70  1965.30  2001.51  2034.41
                             2054.46  2114.10  2129.41  2143.66  2178.17
                             2228.72  2313.12  2358.28  2442.21  4562.05
                             4586.14  4595.12  4601.33  4615.36  4625.35
                             4641.38  4648.13  4721.53  5459.11  5548.53

 Zero-point correction=                           0.191691 (Hartree/Particle)
 Thermal correction to Energy=                    0.203484
 Thermal correction to Enthalpy=                  0.204428
 Thermal correction to Gibbs Free Energy=         0.152187
 Sum of electronic and zero-point Energies=           -575.669758
 Sum of electronic and thermal Energies=              -575.657966
 Sum of electronic and thermal Enthalpies=            -575.657022
 Sum of electronic and thermal Free Energies=         -575.709262

                     E (Thermal)             CV                S
                      KCal/Mol        Cal/Mol-Kelvin    Cal/Mol-Kelvin
 Total                  127.688             45.360            109.949
 Electronic               0.000              0.000              1.377
 Translational            0.889              2.981             41.387
 Rotational               0.889              2.981             31.020
 Vibrational            125.910             39.398             36.164
 Vibration     1          0.594              1.983              5.730
 Vibration     2          0.595              1.980              5.115
 Vibration     3          0.603              1.954              3.581
 Vibration     4          0.611              1.927              3.003
 Vibration     5          0.615              1.912              2.790
 Vibration     6          0.627              1.875              2.394
 Vibration     7          0.660              1.772              1.770
 Vibration     8          0.703              1.645              1.335
 Vibration     9          0.723              1.586              1.191
 Vibration    10          0.777              1.443              0.917
 Vibration    11          0.802              1.377              0.818
 Vibration    12          0.815              1.347              0.776
 Vibration    13          0.836              1.296              0.712
 Vibration    14          0.859              1.243              0.650
 Vibration    15          0.865              1.227              0.633
 Vibration    16          0.927              1.095              0.503
 Vibration    17          0.937              1.075              0.485
 Vibration    18          0.952              1.044              0.459

                           ! Non-Optimized Parameters !
 Normal termination of Gaussian 16 at Tue Feb 26 09:22:30 2019.
