 Gaussian 16, Revision A.03,
 Gaussian 16:  EM64L-G16RevA.03 25-Dec-2016

 ----------------------------------------------------------------------
 # m062x/6-31G(d,p) Opt=(TS,Loose,maxcycle=1000,CalcFC,NoEigenTest) Int
 (Grid=SG1) freq
 ----------------------------------------------------------------------

 -----
 Title
 -----
 Symbolic Z-matrix:
 Charge =  0 Multiplicity = 2

 SCF Done:  E(UM062X) =  -611.720835735     A.U. after   20 cycles
 SCF Done:  E(UM062X) =  -611.736886644     A.U. after   16 cycles
 SCF Done:  E(UM062X) =  -611.749564835     A.U. after   19 cycles
 SCF Done:  E(UM062X) =  -611.754044633     A.U. after   21 cycles
 SCF Done:  E(UM062X) =  -611.752668084     A.U. after   20 cycles
 SCF Done:  E(UM062X) =  -611.754922159     A.U. after   19 cycles
 SCF Done:  E(UM062X) =  -611.720247063     A.U. after   21 cycles
 SCF Done:  E(UM062X) =  -611.753969884     A.U. after   19 cycles
 SCF Done:  E(UM062X) =  -611.767420382     A.U. after   18 cycles
 SCF Done:  E(UM062X) =  -611.776419939     A.U. after   17 cycles
 SCF Done:  E(UM062X) =  -611.782597633     A.U. after   16 cycles
 SCF Done:  E(UM062X) =  -611.781825899     A.U. after   17 cycles
 SCF Done:  E(UM062X) =  -611.783218358     A.U. after   16 cycles
 SCF Done:  E(UM062X) =  -611.779174824     A.U. after   19 cycles
 SCF Done:  E(UM062X) =  -611.782910996     A.U. after   17 cycles
 SCF Done:  E(UM062X) =  -611.781231596     A.U. after   20 cycles
 SCF Done:  E(UM062X) =  -611.783772925     A.U. after   17 cycles
 SCF Done:  E(UM062X) =  -611.783926350     A.U. after   14 cycles
 SCF Done:  E(UM062X) =  -611.783929601     A.U. after   12 cycles
 Optimization completed.
    -- Stationary point found.
 Normal termination of Gaussian 16 at Tue Mar 19 10:56:31 2019.

 ----------------------------------------------------------------------
 #N Geom=AllCheck Guess=TCheck SCRF=Check GenChk UM062X/6-31G(d,p) Freq
 ----------------------------------------------------------------------

 Structure from the checkpoint file:  "/scratch/dinius.ab/QMscratch/Gau-423742.chk"
 -----
 Title
 -----
 Charge =  0 Multiplicity = 2

                         Standard orientation:
 ---------------------------------------------------------------------
 Center     Atomic      Atomic             Coordinates (Angstroms)
 Number     Number       Type             X           Y           Z
 ---------------------------------------------------------------------
      1          6           0        0.043531   -2.442636   -0.521217
      2          6           0        1.351560   -2.603648   -0.035853
      3          6           0        2.111363   -1.497463    0.287472
      4          6           0        1.581566   -0.196974    0.138610
      5          6           0       -0.495449   -1.174965   -0.677636
      6          6           0        0.259410   -0.044041   -0.342456
      7          1           0       -1.508984   -1.040127   -1.040430
      8          1           0       -0.547105   -3.315594   -0.777871
      9          1           0        1.766223   -3.598611    0.080777
     10          1           0        3.123899   -1.613002    0.661496
     11          6           0       -0.312591    1.310280   -0.492374
     12          6           0        2.355045    0.961904    0.457489
     13          6           0        1.834258    2.245419    0.299928
     14          1           0        3.365844    0.828273    0.828446
     15          6           0        0.545088    2.430830   -0.161282
     16          1           0        2.449170    3.104420    0.545893
     17          1           0        0.114725    3.417903   -0.282534
     18          8           0       -1.471528    1.500465   -0.892754
     19          1           0       -2.947192    0.492738   -0.327240
     20          8           0       -3.377738   -0.216289    0.188570
     21          8           0       -2.577600   -0.186707    1.371112
     22          1           0       -2.044334   -0.987996    1.259942
 ---------------------------------------------------------------------

 SCF Done:  E(UM062X) =  -611.783929601     A.U. after    1 cycles

 The electronic state is 2-A.
 Alpha  occ. eigenvalues --  -19.66849 -19.66005 -19.64299 -10.63936 -10.59783
 Alpha  occ. eigenvalues --  -10.58613 -10.58273 -10.58171 -10.58005 -10.57892
 Alpha  occ. eigenvalues --  -10.57717 -10.57619 -10.57123  -1.22041  -1.16731
 Alpha  occ. eigenvalues --   -0.99901  -0.97221  -0.94593  -0.88037  -0.86417
 Alpha  occ. eigenvalues --   -0.82234  -0.73122  -0.72021  -0.68328  -0.61588
 Alpha  occ. eigenvalues --   -0.60710  -0.59034  -0.57837  -0.55308  -0.54289
 Alpha  occ. eigenvalues --   -0.52778  -0.51275  -0.51034  -0.50839  -0.48659
 Alpha  occ. eigenvalues --   -0.47333  -0.46733  -0.45726  -0.42992  -0.41841
 Alpha  occ. eigenvalues --   -0.41399  -0.35887  -0.34623  -0.33991  -0.32943
 Alpha  occ. eigenvalues --   -0.32329  -0.26457
 Alpha virt. eigenvalues --   -0.02324   0.00023   0.05453   0.12241   0.12299
 Alpha virt. eigenvalues --    0.13145   0.13931   0.16708   0.17669   0.20086
 Alpha virt. eigenvalues --    0.20295   0.22039   0.22137   0.23969   0.26340

  Beta  occ. eigenvalues --  -19.66851 -19.65998 -19.63735 -10.64003 -10.59473
  Beta  occ. eigenvalues --  -10.58694 -10.58325 -10.57984 -10.57936 -10.57821
  Beta  occ. eigenvalues --  -10.57691 -10.57612 -10.57153  -1.22024  -1.15286
  Beta  occ. eigenvalues --   -0.99568  -0.97209  -0.94094  -0.87655  -0.86219
  Beta  occ. eigenvalues --   -0.81192  -0.72925  -0.71715  -0.67972  -0.61145
  Beta  occ. eigenvalues --   -0.60423  -0.58681  -0.57740  -0.55091  -0.54016
  Beta  occ. eigenvalues --   -0.52355  -0.50830  -0.50527  -0.49367  -0.48356
  Beta  occ. eigenvalues --   -0.47180  -0.46429  -0.43569  -0.42723  -0.41684
  Beta  occ. eigenvalues --   -0.38703  -0.35790  -0.34029  -0.32649  -0.31962
  Beta  occ. eigenvalues --   -0.31811
  Beta virt. eigenvalues --   -0.11190  -0.00847   0.01412   0.07467   0.12456
  Beta virt. eigenvalues --    0.13151   0.13534   0.14068   0.16845   0.17822
  Beta virt. eigenvalues --    0.20241   0.20495   0.22198   0.22276   0.24609

 Mulliken charges and spin densities:
               1          2
     1  C   -0.128097   0.102251
     2  C   -0.119007  -0.050735
     3  C   -0.142134   0.096434
     4  C    0.056722  -0.111621
     5  C   -0.170891  -0.042122
     6  C    0.008691   0.111256
     7  H    0.160047   0.000912
     8  H    0.142320  -0.004870
     9  H    0.137194   0.001652
    10  H    0.133015  -0.004417
    11  C    0.394660  -0.071187
    12  C   -0.111952   0.478878
    13  C   -0.128235  -0.185522
    14  H    0.143213  -0.021246
    15  C   -0.119949   0.414513
    16  H    0.144369   0.004946
    17  H    0.155841  -0.018851
    18  O   -0.535386   0.298589
    19  H    0.385837  -0.001572
    20  O   -0.386885   0.002915
    21  O   -0.363906  -0.000409
    22  H    0.344531   0.000207
 Sum of Mulliken charges =  -0.00000   1.00000

 Dipole moment (field-independent basis, Debye):
    X=              6.1129    Y=             -1.1303    Z=             -0.0636  Tot=              6.2169
 Quadrupole moment (field-independent basis, Debye-Ang):
   XX=            -80.4297   YY=            -61.6830   ZZ=            -78.1849
   XY=              3.3620   XZ=              6.5742   YZ=              0.7641

  Exact polarizability: 130.631  -3.804 156.192  26.872   1.797  56.181
 Approx polarizability: 178.293  -7.353 196.300  43.048   1.173  80.116

                      1                      2                      3
                      A                      A                      A
 Frequencies --     34.3859                68.2531               120.1771
 Red. masses --      7.5024                 6.2111                 5.7479
 Frc consts  --      0.0052                 0.0170                 0.0489
 IR Inten    --      0.8375                 0.4049                 1.2560

                      4                      5                      6
                      A                      A                      A
 Frequencies --    132.3852               155.0690               183.6088
 Red. masses --      5.2368                 6.8628                 4.7199
 Frc consts  --      0.0541                 0.0972                 0.0938
 IR Inten    --      1.6743                 5.9870                 0.9053

                      7                      8                      9
                      A                      A                      A
 Frequencies --    206.1685               245.7375               314.8389
 Red. masses --      5.0585                 4.6818                 6.0589
 Frc consts  --      0.1267                 0.1666                 0.3539
 IR Inten    --      8.5198                 1.7602                 2.9270

                     10                     11                     12
                      A                      A                      A
 Frequencies --    332.9492               423.4882               460.7151
 Red. masses --      1.0782                 3.3604                 3.5813
 Frc consts  --      0.0704                 0.3551                 0.4479
 IR Inten    --    134.4524                 0.9850                 3.1999

                     13                     14                     15
                      A                      A                      A
 Frequencies --    469.3972               476.3762               540.5255
 Red. masses --      6.6174                 6.8141                 3.2915
 Frc consts  --      0.8590                 0.9111                 0.5666
 IR Inten    --      1.4973                 3.9145                15.8375

                     16                     17                     18
                      A                      A                      A
 Frequencies --    544.4732               586.6928               627.8801
 Red. masses --      5.7605                 5.6754                 1.1129
 Frc consts  --      1.0062                 1.1510                 0.2585
 IR Inten    --      0.7981                26.7715               308.4225

                     19                     20                     21
                      A                      A                      A
 Frequencies --    663.2041               731.0740               732.8715
 Red. masses --      2.5591                 5.4216                 2.0475
 Frc consts  --      0.6632                 1.7073                 0.6479
 IR Inten    --      0.8129                 1.5716                14.0175

                     22                     23                     24
                      A                      A                      A
 Frequencies --    790.2369               795.7618               821.2712
 Red. masses --      3.3756                 1.4852                 2.4559
 Frc consts  --      1.2420                 0.5541                 0.9760
 IR Inten    --     12.8988                37.5273                48.2389

                     25                     26                     27
                      A                      A                      A
 Frequencies --    894.4634               912.7825               928.1833
 Red. masses --      4.8451                 1.4216                 1.4195
 Frc consts  --      2.2839                 0.6979                 0.7205
 IR Inten    --      0.9371                 0.2467                 0.2488

                     28                     29                     30
                      A                      A                      A
 Frequencies --    994.9153              1015.3031              1035.6894
 Red. masses --      1.3186                 1.3395                 1.2888
 Frc consts  --      0.7690                 0.8136                 0.8145
 IR Inten    --      0.1628                 3.7437                 3.8481

                     31                     32                     33
                      A                      A                      A
 Frequencies --   1042.0321              1064.0312              1099.9363
 Red. masses --     14.2645                 3.3426                 2.1821
 Frc consts  --      9.1258                 2.2297                 1.5554
 IR Inten    --      5.0064                 2.2960                 0.8984

                     34                     35                     36
                      A                      A                      A
 Frequencies --   1114.6643              1164.4617              1173.7093
 Red. masses --      1.8939                 1.4302                 1.4099
 Frc consts  --      1.3864                 1.1426                 1.1444
 IR Inten    --      3.1192                 6.1834                 1.3786

                     37                     38                     39
                      A                      A                      A
 Frequencies --   1189.2075              1249.5443              1292.3873
 Red. masses --      1.2012                 1.9243                 1.8018
 Frc consts  --      1.0009                 1.7702                 1.7731
 IR Inten    --      1.0865                18.9350                 2.3280

                     40                     41                     42
                      A                      A                      A
 Frequencies --   1343.6326              1367.9523              1390.6220
 Red. masses --      2.9229                 5.8006                 2.0897
 Frc consts  --      3.1091                 6.3953                 2.3810
 IR Inten    --     45.8535                17.6976                12.7604

                     43                     44                     45
                      A                      A                      A
 Frequencies --   1392.2362              1467.0167              1490.0767
 Red. masses --      1.1264                 2.1603                 2.2680
 Frc consts  --      1.2864                 2.7393                 2.9669
 IR Inten    --     72.4461                10.0504                 0.2396

                     46                     47                     48
                      A                      A                      A
 Frequencies --   1509.5710              1545.1381              1580.6434
 Red. masses --      1.0901                 2.7907                 3.9220
 Frc consts  --      1.4636                 3.9256                 5.7733
 IR Inten    --    110.8236                 6.6465                 2.7721

                     49                     50                     51
                      A                      A                      A
 Frequencies --   1638.6654              1645.2386              1683.4568
 Red. masses --      6.0928                 9.3075                 5.7874
 Frc consts  --      9.6393                14.8437                 9.6635
 IR Inten    --      4.3441               155.4523                 1.1905

                     52                     53                     54
                      A                      A                      A
 Frequencies --   3191.8283              3194.0493              3196.5624
 Red. masses --      1.0876                 1.0876                 1.0908
 Frc consts  --      6.5282                 6.5373                 6.5667
 IR Inten    --      0.4096                 1.2173                 8.0287

                     55                     56                     57
                      A                      A                      A
 Frequencies --   3208.3776              3212.7777              3224.1639
 Red. masses --      1.0940                 1.0935                 1.0969
 Frc consts  --      6.6351                 6.6504                 6.7183
 IR Inten    --     11.0420                 2.4145                12.6932

                     58                     59                     60
                      A                      A                      A
 Frequencies --   3233.0035              3710.2569              3822.6567
 Red. masses --      1.0941                 1.0673                 1.0685
 Frc consts  --      6.7380                 8.6564                 9.1991
 IR Inten    --      1.3553               263.3057                25.6673

 - Thermochemistry -
 -------------------
 Temperature   298.150 Kelvin.  Pressure   1.00000 Atm.
 Atom     1 has atomic number  6 and mass  12.00000

 Molecular mass:   177.05517 amu.
 Principal axes and moments of inertia in atomic units:
                           1         2         3
     Eigenvalues --  1838.849132345.492143709.82154
           X            0.99966   0.02264   0.01271
           Y           -0.02272   0.99972   0.00605
           Z           -0.01257  -0.00634   0.99990
 This molecule is an asymmetric top.
 Rotational symmetry number  1.
 Warning -- assumption of classical behavior for rotation
           may cause significant error
 Rotational temperatures (Kelvin)      0.04710     0.03693     0.02335
 Rotational constants (GHZ):           0.98145     0.76945     0.48648
 Zero-point vibrational energy     446666.3 (Joules/Mol)
                                  106.75581 (Kcal/Mol)
 Warning -- explicit consideration of  17 degrees of freedom as
           vibrations may cause significant error
 Vibrational temperatures:     49.47    98.20   172.91   190.47   223.11
          (Kelvin)            264.17   296.63   353.56   452.98   479.04
                              609.31   662.87   675.36   685.40   777.70
                              783.38   844.12   903.38   954.20  1051.85
                             1054.44  1136.97  1144.92  1181.63  1286.93
                             1313.29  1335.45  1431.46  1460.79  1490.13
                             1499.25  1530.90  1582.56  1603.75  1675.40
                             1688.71  1711.00  1797.82  1859.46  1933.19
                             1968.18  2000.79  2003.12  2110.71  2143.89
                             2171.94  2223.11  2274.19  2357.67  2367.13
                             2422.12  4592.33  4595.52  4599.14  4616.14
                             4622.47  4638.85  4651.57  5338.23  5499.95

 Zero-point correction=                           0.170126 (Hartree/Particle)
 Thermal correction to Energy=                    0.181852
 Thermal correction to Enthalpy=                  0.182796
 Thermal correction to Gibbs Free Energy=         0.131035
 Sum of electronic and zero-point Energies=           -611.613803
 Sum of electronic and thermal Energies=              -611.602078
 Sum of electronic and thermal Enthalpies=            -611.601134
 Sum of electronic and thermal Free Energies=         -611.652894

                     E (Thermal)             CV                S
                      KCal/Mol        Cal/Mol-Kelvin    Cal/Mol-Kelvin
 Total                  114.114             44.154            108.939
 Electronic               0.000              0.000              1.377
 Translational            0.889              2.981             41.421
 Rotational               0.889              2.981             31.148
 Vibrational            112.336             38.192             34.993
 Vibration     1          0.594              1.983              5.559
 Vibration     2          0.598              1.969              4.203
 Vibration     3          0.609              1.932              3.098
 Vibration     4          0.612              1.921              2.911
 Vibration     5          0.620              1.897              2.609
 Vibration     6          0.631              1.862              2.291
 Vibration     7          0.641              1.831              2.077
 Vibration     8          0.660              1.770              1.761
 Vibration     9          0.702              1.645              1.337
 Vibration    10          0.715              1.610              1.246
 Vibration    11          0.786              1.419              0.880
 Vibration    12          0.819              1.337              0.764
 Vibration    13          0.827              1.318              0.739
 Vibration    14          0.833              1.302              0.720
 Vibration    15          0.896              1.160              0.564
 Vibration    16          0.900              1.152              0.556
 Vibration    17          0.944              1.060              0.473

                           ! Non-Optimized Parameters !
 Normal termination of Gaussian 16 at Tue Mar 19 10:58:18 2019.
