 Gaussian 16, Revision A.03,
 Gaussian 16:  EM64L-G16RevA.03 25-Dec-2016

 ----------------------------------------------------------------------
 # m062x/6-31G(d,p) Opt=(TS,Loose,maxcycle=1000,CalcFC,NoEigenTest) Int
 (Grid=SG1) freq
 ----------------------------------------------------------------------

 -----
 Title
 -----
 Symbolic Z-matrix:
 Charge =  0 Multiplicity = 2

 SCF Done:  E(UM062X) =  -611.759450115     A.U. after   19 cycles
 SCF Done:  E(UM062X) =  -611.766024915     A.U. after   16 cycles
 SCF Done:  E(UM062X) =  -611.764791273     A.U. after   17 cycles
 SCF Done:  E(UM062X) =  -611.751214168     A.U. after   19 cycles
 SCF Done:  E(UM062X) =  -611.769136389     A.U. after   17 cycles
 SCF Done:  E(UM062X) =  -611.778939759     A.U. after   16 cycles
 SCF Done:  E(UM062X) =  -611.781689467     A.U. after   16 cycles
 SCF Done:  E(UM062X) =  -611.780037841     A.U. after   18 cycles
 SCF Done:  E(UM062X) =  -611.775702339     A.U. after   16 cycles
 SCF Done:  E(UM062X) =  -611.781162266     A.U. after   16 cycles
 SCF Done:  E(UM062X) =  -611.781051122     A.U. after   15 cycles
 SCF Done:  E(UM062X) =  -611.781146760     A.U. after   14 cycles
 SCF Done:  E(UM062X) =  -611.781144002     A.U. after   13 cycles
 SCF Done:  E(UM062X) =  -611.781062431     A.U. after   14 cycles
 SCF Done:  E(UM062X) =  -611.781161233     A.U. after   14 cycles
 SCF Done:  E(UM062X) =  -611.781166021     A.U. after   13 cycles
 SCF Done:  E(UM062X) =  -611.781167229     A.U. after   12 cycles
 SCF Done:  E(UM062X) =  -611.781167722     A.U. after   10 cycles
 SCF Done:  E(UM062X) =  -611.781169362     A.U. after   12 cycles
 Optimization completed.
    -- Stationary point found.
 Normal termination of Gaussian 16 at Tue Feb 26 10:45:53 2019.

 ----------------------------------------------------------------------
 #N Geom=AllCheck Guess=TCheck SCRF=Check GenChk UM062X/6-31G(d,p) Freq
 ----------------------------------------------------------------------

 Structure from the checkpoint file:  "/scratch/dinius.ab/QMscratch/Gau-244464.chk"
 -----
 Title
 -----
 Charge =  0 Multiplicity = 2

                         Standard orientation:
 ---------------------------------------------------------------------
 Center     Atomic      Atomic             Coordinates (Angstroms)
 Number     Number       Type             X           Y           Z
 ---------------------------------------------------------------------
      1          6           0        2.303777   -1.741948   -0.199281
      2          6           0        3.076949   -0.741152    0.410183
      3          6           0        2.562497    0.529091    0.584014
      4          6           0        1.253813    0.834688    0.152595
      5          6           0        1.015852   -1.461965   -0.628881
      6          6           0        0.482932   -0.181889   -0.457471
      7          1           0        0.395962   -2.210627   -1.109172
      8          1           0        2.717587   -2.735206   -0.332182
      9          1           0        4.083313   -0.965180    0.747159
     10          1           0        3.157953    1.303443    1.057746
     11          6           0       -0.894609    0.106577   -0.904565
     12          6           0        0.690838    2.138414    0.317590
     13          6           0       -0.603762    2.427615   -0.112971
     14          1           0        1.292720    2.905929    0.792959
     15          6           0       -1.386073    1.455979   -0.706332
     16          1           0       -1.001506    3.426085    0.028115
     17          1           0       -2.400097    1.653971   -1.034038
     18          8           0       -1.600869   -0.773686   -1.422470
     19          1           0       -2.877091   -1.181648   -0.091234
     20          8           0       -3.166118   -1.247065    0.839815
     21          8           0       -2.082914   -0.607018    1.504754
     22          1           0       -1.582904   -1.367073    1.834571
 ---------------------------------------------------------------------

 SCF Done:  E(UM062X) =  -611.781169362     A.U. after    1 cycles

 The electronic state is 2-A.
 Alpha  occ. eigenvalues --  -19.67842 -19.66463 -19.63320 -10.63382 -10.59070
 Alpha  occ. eigenvalues --  -10.57948 -10.57569 -10.57439 -10.57413 -10.57146
 Alpha  occ. eigenvalues --  -10.57087 -10.57073 -10.56629  -1.22982  -1.15958
 Alpha  occ. eigenvalues --   -0.99264  -0.97836  -0.93916  -0.87406  -0.85783
 Alpha  occ. eigenvalues --   -0.81558  -0.72493  -0.71394  -0.67672  -0.60935
 Alpha  occ. eigenvalues --   -0.59840  -0.59117  -0.58372  -0.55869  -0.53665
 Alpha  occ. eigenvalues --   -0.52487  -0.50627  -0.50287  -0.49815  -0.48184
 Alpha  occ. eigenvalues --   -0.48016  -0.46296  -0.44800  -0.42355  -0.41205
 Alpha  occ. eigenvalues --   -0.40749  -0.36443  -0.34407  -0.33371  -0.32951
 Alpha  occ. eigenvalues --   -0.31970  -0.25585
 Alpha virt. eigenvalues --   -0.01577   0.00704   0.06200   0.12389   0.12681
 Alpha virt. eigenvalues --    0.12821   0.14472   0.16284   0.17420   0.20240
 Alpha virt. eigenvalues --    0.20490   0.22502   0.22570   0.23922   0.25693

  Beta  occ. eigenvalues --  -19.67817 -19.66442 -19.62823 -10.63437 -10.58755
  Beta  occ. eigenvalues --  -10.58028 -10.57592 -10.57344 -10.57277 -10.57148
  Beta  occ. eigenvalues --  -10.57037 -10.57017 -10.56659  -1.22914  -1.14674
  Beta  occ. eigenvalues --   -0.98940  -0.97762  -0.93398  -0.87029  -0.85572
  Beta  occ. eigenvalues --   -0.80495  -0.72296  -0.71076  -0.67318  -0.60493
  Beta  occ. eigenvalues --   -0.59590  -0.58932  -0.58012  -0.55489  -0.53419
  Beta  occ. eigenvalues --   -0.52013  -0.50251  -0.49986  -0.48581  -0.47859
  Beta  occ. eigenvalues --   -0.47666  -0.45962  -0.42739  -0.42091  -0.41053
  Beta  occ. eigenvalues --   -0.38082  -0.36062  -0.34211  -0.32492  -0.31452
  Beta  occ. eigenvalues --   -0.31248
  Beta virt. eigenvalues --   -0.10464  -0.00165   0.02143   0.08130   0.12487
  Beta virt. eigenvalues --    0.12952   0.13751   0.14647   0.16560   0.17631
  Beta virt. eigenvalues --    0.20323   0.20739   0.22643   0.22715   0.24308

 Mulliken charges and spin densities:
               1          2
     1  C   -0.126282   0.104569
     2  C   -0.119617  -0.051237
     3  C   -0.145296   0.098434
     4  C    0.058997  -0.112285
     5  C   -0.132509  -0.042363
     6  C   -0.008950   0.108337
     7  H    0.159014   0.000747
     8  H    0.134994  -0.004969
     9  H    0.132620   0.001690
    10  H    0.130443  -0.004526
    11  C    0.397347  -0.053151
    12  C   -0.111248   0.484471
    13  C   -0.126381  -0.190860
    14  H    0.140372  -0.021590
    15  C   -0.101061   0.423622
    16  H    0.142534   0.005030
    17  H    0.151017  -0.019603
    18  O   -0.558071   0.263377
    19  H    0.377181  -0.002714
    20  O   -0.382244   0.008578
    21  O   -0.365440   0.004210
    22  H    0.352579   0.000233
 Sum of Mulliken charges =  -0.00000   1.00000

 Dipole moment (field-independent basis, Debye):
    X=              4.4411    Y=              1.5057    Z=              0.6204  Tot=              4.7303
 Quadrupole moment (field-independent basis, Debye-Ang):
   XX=            -77.0180   YY=            -62.8324   ZZ=            -77.8774
   XY=             -5.2862   XZ=              6.1519   YZ=             -0.5426

  Exact polarizability: 149.436 -14.491 131.117  30.078  16.151  63.163
 Approx polarizability: 186.864 -10.297 177.025  45.141  28.894  88.987

 ******    1 imaginary frequencies (negative Signs) ******

                      1                      2                      3
                      A                      A                      A
 Frequencies --    -89.0452                38.2633                63.3593
 Red. masses --      2.0960                 7.8172                 4.4222
 Frc consts  --      0.0098                 0.0067                 0.0105
 IR Inten    --     73.6131                 5.9756                 8.6295

                      4                      5                      6
                      A                      A                      A
 Frequencies --    115.5769               158.7914               162.4274
 Red. masses --      4.9343                 2.0382                 3.9760
 Frc consts  --      0.0388                 0.0303                 0.0618
 IR Inten    --      1.3258                32.9651                12.4391

                      7                      8                      9
                      A                      A                      A
 Frequencies --    183.2047               240.2422               254.2112
 Red. masses --      5.1619                 4.9110                 5.6618
 Frc consts  --      0.1021                 0.1670                 0.2156
 IR Inten    --      2.9749                27.8446                16.8489

                     10                     11                     12
                      A                      A                      A
 Frequencies --    305.0561               420.2057               459.9425
 Red. masses --      6.1383                 3.3408                 3.5578
 Frc consts  --      0.3366                 0.3476                 0.4434
 IR Inten    --      7.3413                 0.3223                 1.5117

                     13                     14                     15
                      A                      A                      A
 Frequencies --    468.6359               471.5361               519.8794
 Red. masses --      6.3884                 6.7415                 1.1262
 Frc consts  --      0.8266                 0.8832                 0.1793
 IR Inten    --      0.8384                 4.4895                78.0101

                     16                     17                     18
                      A                      A                      A
 Frequencies --    536.4199               544.7770               583.8450
 Red. masses --      3.1663                 5.3136                 6.2178
 Frc consts  --      0.5368                 0.9291                 1.2488
 IR Inten    --      9.4656                10.5750                11.9515

                     19                     20                     21
                      A                      A                      A
 Frequencies --    660.1987               731.0975               732.0040
 Red. masses --      2.4758                 5.4493                 2.0641
 Frc consts  --      0.6358                 1.7161                 0.6516
 IR Inten    --      1.5735                 1.0290                13.1317

                     22                     23                     24
                      A                      A                      A
 Frequencies --    788.9917               795.4871               820.0630
 Red. masses --      4.4267                 1.3322                 2.4802
 Frc consts  --      1.6236                 0.4967                 0.9827
 IR Inten    --      5.0948                37.6973                52.0694

                     25                     26                     27
                      A                      A                      A
 Frequencies --    896.1298               899.9235               924.0380
 Red. masses --      4.8972                 1.5000                 1.3773
 Frc consts  --      2.3171                 0.7157                 0.6929
 IR Inten    --      0.5923                 0.1002                 0.2362

                     28                     29                     30
                      A                      A                      A
 Frequencies --   1001.9945              1008.7520              1037.3041
 Red. masses --      1.3216                 1.3187                 1.2958
 Frc consts  --      0.7818                 0.7906                 0.8215
 IR Inten    --      2.1363                 0.1381                 0.3357

                     31                     32                     33
                      A                      A                      A
 Frequencies --   1044.8776              1061.9632              1090.5105
 Red. masses --     14.5151                 2.9033                 2.1610
 Frc consts  --      9.3369                 1.9291                 1.5141
 IR Inten    --      3.3369                 3.2659                 1.6456

                     34                     35                     36
                      A                      A                      A
 Frequencies --   1103.6984              1150.9899              1164.0847
 Red. masses --      1.9377                 1.3571                 1.3214
 Frc consts  --      1.3907                 1.0592                 1.0550
 IR Inten    --      2.3772                 7.6083                 1.2014

                     37                     38                     39
                      A                      A                      A
 Frequencies --   1181.9413              1241.3281              1287.0270
 Red. masses --      1.2549                 1.9764                 1.8025
 Frc consts  --      1.0328                 1.7943                 1.7591
 IR Inten    --      1.4877                16.8294                 0.3000

                     40                     41                     42
                      A                      A                      A
 Frequencies --   1341.9365              1365.0507              1373.7282
 Red. masses --      3.1606                 6.1359                 2.2869
 Frc consts  --      3.3533                 6.7364                 2.5428
 IR Inten    --     54.6353                17.4239                13.3214

                     43                     44                     45
                      A                      A                      A
 Frequencies --   1401.6981              1468.5443              1481.1756
 Red. masses --      1.1109                 2.0807                 2.3114
 Frc consts  --      1.2859                 2.6439                 2.9877
 IR Inten    --     91.3297                 6.8823                 1.4820

                     46                     47                     48
                      A                      A                      A
 Frequencies --   1503.6166              1544.1578              1571.4451
 Red. masses --      1.0970                 2.8783                 3.9513
 Frc consts  --      1.4613                 4.0436                 5.7490
 IR Inten    --    141.6201                13.5104                 3.1226

                     49                     50                     51
                      A                      A                      A
 Frequencies --   1639.0288              1654.3757              1682.7145
 Red. masses --      6.6238                 8.2669                 6.2977
 Frc consts  --     10.4841                13.3310                10.5063
 IR Inten    --     25.6686               144.7604                 4.9623

                     52                     53                     54
                      A                      A                      A
 Frequencies --   3197.7757              3206.9371              3214.7787
 Red. masses --      1.0876                 1.0873                 1.0935
 Frc consts  --      6.5524                 6.5886                 6.6583
 IR Inten    --      2.1930                 1.5047                11.4172

                     55                     56                     57
                      A                      A                      A
 Frequencies --   3218.6953              3224.0625              3232.3863
 Red. masses --      1.0901                 1.0915                 1.0979
 Frc consts  --      6.6539                 6.6849                 6.7585
 IR Inten    --      8.5560                 5.0835                 6.9059

                     58                     59                     60
                      A                      A                      A
 Frequencies --   3237.5926              3683.3808              3868.1916
 Red. masses --      1.0964                 1.0681                 1.0683
 Frc consts  --      6.7711                 8.5381                 9.4181
 IR Inten    --      5.8242               183.1005                21.3561

 - Thermochemistry -
 -------------------
 Temperature   298.150 Kelvin.  Pressure   1.00000 Atm.
 Atom     1 has atomic number  6 and mass  12.00000

 Molecular mass:   177.05517 amu.
 Principal axes and moments of inertia in atomic units:
                           1         2         3
     Eigenvalues --  1545.906752773.815183468.37140
           X            0.99978  -0.01798   0.01076
           Y            0.01786   0.99977   0.01145
           Z           -0.01096  -0.01126   0.99988
 This molecule is an asymmetric top.
 Rotational symmetry number  1.
 Warning -- assumption of classical behavior for rotation
           may cause significant error
 Rotational temperatures (Kelvin)      0.05603     0.03123     0.02497
 Rotational constants (GHZ):           1.16743     0.65063     0.52034
    1 imaginary frequencies ignored.
 Zero-point vibrational energy     444173.7 (Joules/Mol)
                                  106.16007 (Kcal/Mol)
 Warning -- explicit consideration of  17 degrees of freedom as
           vibrations may cause significant error
 Vibrational temperatures:     55.05    91.16   166.29   228.47   233.70
          (Kelvin)            263.59   345.65   365.75   438.91   604.58
                              661.75   674.26   678.44   747.99   771.79
                              783.81   840.02   949.88  1051.89  1053.19
                             1135.18  1144.53  1179.89  1289.33  1294.79
                             1329.48  1441.65  1451.37  1492.45  1503.35
                             1527.93  1569.00  1587.98  1656.02  1674.86
                             1700.55  1785.99  1851.74  1930.75  1964.00
                             1976.49  2016.73  2112.91  2131.08  2163.37
                             2221.70  2260.96  2358.20  2380.28  2421.05
                             4600.89  4614.07  4625.35  4630.98  4638.71
                             4650.68  4658.17  5299.56  5565.46

 Zero-point correction=                           0.169177 (Hartree/Particle)
 Thermal correction to Energy=                    0.180511
 Thermal correction to Enthalpy=                  0.181455
 Thermal correction to Gibbs Free Energy=         0.130523
 Sum of electronic and zero-point Energies=           -611.611993
 Sum of electronic and thermal Energies=              -611.600659
 Sum of electronic and thermal Enthalpies=            -611.599715
 Sum of electronic and thermal Free Energies=         -611.650646

                     E (Thermal)             CV                S
                      KCal/Mol        Cal/Mol-Kelvin    Cal/Mol-Kelvin
 Total                  113.272             42.819            107.194
 Electronic               0.000              0.000              1.377
 Translational            0.889              2.981             41.421
 Rotational               0.889              2.981             31.076
 Vibrational            111.495             36.857             33.320
 Vibration     1          0.594              1.982              5.347
 Vibration     2          0.597              1.972              4.350
 Vibration     3          0.608              1.936              3.173
 Vibration     4          0.621              1.893              2.564
 Vibration     5          0.623              1.889              2.521
 Vibration     6          0.631              1.863              2.296
 Vibration     7          0.657              1.779              1.801
 Vibration     8          0.665              1.756              1.701
 Vibration     9          0.696              1.664              1.389
 Vibration    10          0.783              1.426              0.891
 Vibration    11          0.818              1.339              0.766
 Vibration    12          0.826              1.320              0.741
 Vibration    13          0.828              1.313              0.733
 Vibration    14          0.875              1.206              0.610
 Vibration    15          0.891              1.169              0.573
 Vibration    16          0.900              1.151              0.555
 Vibration    17          0.941              1.066              0.478

                           ! Non-Optimized Parameters !
 Normal termination of Gaussian 16 at Tue Feb 26 10:47:40 2019.
