 Gaussian 16, Revision A.03,
 Gaussian 16:  EM64L-G16RevA.03 25-Dec-2016

 ----------------------------------------------------------------------
 #m062x/6-311+g(2df,2p) Opt=(ModRedun,Loose,maxcycle=1000) Int(Grid=SG1
 ) freq
 ----------------------------------------------------------------------

 -----
 Title
 -----
 Symbolic Z-matrix:
 Charge =  0 Multiplicity = 2

 SCF Done:  E(UM062X) =  -611.975969968     A.U. after   23 cycles
 SCF Done:  E(UM062X) =  -611.989015908     A.U. after   19 cycles
 SCF Done:  E(UM062X) =  -611.987827476     A.U. after   20 cycles
 SCF Done:  E(UM062X) =  -611.990473079     A.U. after   18 cycles
 SCF Done:  E(UM062X) =  -611.984596481     A.U. after   19 cycles
 SCF Done:  E(UM062X) =  -611.989535583     A.U. after   18 cycles
 SCF Done:  E(UM062X) =  -611.990849065     A.U. after   14 cycles
 SCF Done:  E(UM062X) =  -611.991242861     A.U. after   19 cycles
 SCF Done:  E(UM062X) =  -611.991339313     A.U. after   15 cycles
 SCF Done:  E(UM062X) =  -611.991307250     A.U. after   17 cycles
 SCF Done:  E(UM062X) =  -611.991329022     A.U. after   17 cycles
 SCF Done:  E(UM062X) =  -611.991412036     A.U. after   14 cycles
 SCF Done:  E(UM062X) =  -611.991437682     A.U. after   15 cycles
 SCF Done:  E(UM062X) =  -611.991446876     A.U. after   13 cycles
 SCF Done:  E(UM062X) =  -611.991462757     A.U. after   13 cycles
 SCF Done:  E(UM062X) =  -611.991464496     A.U. after   14 cycles
 SCF Done:  E(UM062X) =  -611.991464141     A.U. after   13 cycles
 SCF Done:  E(UM062X) =  -611.991465027     A.U. after   12 cycles
 SCF Done:  E(UM062X) =  -611.991465043     A.U. after   12 cycles
 Optimization completed.
    -- Stationary point found.
 Normal termination of Gaussian 16 at Tue Feb  5 10:55:39 2019.

 ----------------------------------------------------------------------
 #N Geom=AllCheck Guess=TCheck SCRF=Check GenChk UM062X/6-311+G(2df,2p)
  Freq
 ----------------------------------------------------------------------

 Structure from the checkpoint file:  "/scratch/dinius.ab/QMscratch/Gau-49046.chk"
 -----
 Title
 -----
 Charge =  0 Multiplicity = 2

                         Standard orientation:
 ---------------------------------------------------------------------
 Center     Atomic      Atomic             Coordinates (Angstroms)
 Number     Number       Type             X           Y           Z
 ---------------------------------------------------------------------
      1          6           0        2.850696   -1.681780    0.076210
      2          6           0        3.626191   -0.516731    0.097508
      3          6           0        3.020200    0.718565    0.060232
      4          6           0        1.618455    0.822469   -0.000250
      5          6           0        1.473065   -1.600797    0.017000
      6          6           0        0.845300   -0.356857   -0.021229
      7          1           0        0.859380   -2.489531   -0.001070
      8          1           0        3.333005   -2.648543    0.102298
      9          1           0        4.704268   -0.587828    0.140154
     10          1           0        3.612553    1.623216    0.074747
     11          6           0       -0.623864   -0.264591   -0.088209
     12          6           0        0.967009    2.089069   -0.041579
     13          6           0       -0.418004    2.186711   -0.100481
     14          1           0        1.572788    2.984707   -0.024266
     15          6           0       -1.207781    1.058579   -0.123188
     16          1           0       -0.880501    3.163367   -0.123876
     17          1           0       -2.287442    1.119888   -0.151979
     18          8           0       -1.325517   -1.283714   -0.115265
     19          1           0       -3.078190   -1.058443   -0.429531
     20          8           0       -4.005044   -0.765044   -0.532397
     21          8           0       -4.179420    0.017370    0.640382
     22          1           0       -4.663619   -0.583546    1.215686
 ---------------------------------------------------------------------

 SCF Done:  E(UM062X) =  -611.991465043     A.U. after    1 cycles

 The electronic state is 2-A.
 Alpha  occ. eigenvalues --  -19.66493 -19.64918 -19.62750 -10.63225 -10.58667
 Alpha  occ. eigenvalues --  -10.57662 -10.56994 -10.56942 -10.56929 -10.56907
 Alpha  occ. eigenvalues --  -10.56619 -10.56546 -10.56201  -1.23795  -1.17667
 Alpha  occ. eigenvalues --   -1.00423  -0.98534  -0.95029  -0.88452  -0.86773
 Alpha  occ. eigenvalues --   -0.82573  -0.73471  -0.72445  -0.68748  -0.62073
 Alpha  occ. eigenvalues --   -0.61129  -0.60332  -0.59193  -0.56633  -0.54368
 Alpha  occ. eigenvalues --   -0.53470  -0.52233  -0.51686  -0.51417  -0.49432
 Alpha  occ. eigenvalues --   -0.48689  -0.47035  -0.46619  -0.43471  -0.42133
 Alpha  occ. eigenvalues --   -0.42023  -0.37441  -0.35519  -0.34640  -0.34482
 Alpha  occ. eigenvalues --   -0.33110  -0.27038
 Alpha virt. eigenvalues --   -0.03342  -0.01055   0.00202   0.01216   0.02332
 Alpha virt. eigenvalues --    0.03037   0.03477   0.04045   0.05206   0.05745
 Alpha virt. eigenvalues --    0.06223   0.06266   0.06983   0.07396   0.08459

  Beta  occ. eigenvalues --  -19.66492 -19.64920 -19.62232 -10.63275 -10.58399
  Beta  occ. eigenvalues --  -10.57733 -10.57080 -10.56883 -10.56872 -10.56712
  Beta  occ. eigenvalues --  -10.56624 -10.56513 -10.56224  -1.23792  -1.16285
  Beta  occ. eigenvalues --   -1.00095  -0.98536  -0.94517  -0.88069  -0.86576
  Beta  occ. eigenvalues --   -0.81505  -0.73266  -0.72135  -0.68385  -0.61676
  Beta  occ. eigenvalues --   -0.60872  -0.60138  -0.58915  -0.56511  -0.54152
  Beta  occ. eigenvalues --   -0.52958  -0.51384  -0.51189  -0.50103  -0.49371
  Beta  occ. eigenvalues --   -0.48469  -0.46705  -0.44494  -0.43170  -0.41991
  Beta  occ. eigenvalues --   -0.39372  -0.37342  -0.35418  -0.33929  -0.32697
  Beta  occ. eigenvalues --   -0.32408
  Beta virt. eigenvalues --   -0.11953  -0.02011   0.00189   0.00225   0.01237
  Beta virt. eigenvalues --    0.02308   0.03483   0.03673   0.04005   0.05214
  Beta virt. eigenvalues --    0.05631   0.06238   0.06486   0.07219   0.07492

 Mulliken charges and spin densities:
               1          2
     1  C   -0.328407   0.114041
     2  C   -0.384705  -0.049037
     3  C   -0.012753   0.141564
     4  C   -0.125780  -0.199281
     5  C    0.178722  -0.040809
     6  C    0.643822   0.128789
     7  H    0.186173   0.001713
     8  H    0.156965  -0.007290
     9  H    0.156899   0.002355
    10  H    0.158672  -0.005119
    11  C   -0.278946  -0.049125
    12  C   -0.244444   0.499657
    13  C   -0.493508  -0.217331
    14  H    0.176562  -0.024393
    15  C    0.234791   0.439804
    16  H    0.162746   0.007527
    17  H    0.222913  -0.024570
    18  O   -0.444336   0.283111
    19  H    0.342112  -0.003378
    20  O   -0.322500   0.001873
    21  O   -0.239018  -0.000055
    22  H    0.254019  -0.000047
 Sum of Mulliken charges =   0.00000   1.00000

 Dipole moment (field-independent basis, Debye):
    X=              4.6258    Y=              1.6464    Z=              1.2960  Tot=              5.0782
 Quadrupole moment (field-independent basis, Debye-Ang):
   XX=            -74.6367   YY=            -66.6206   ZZ=            -78.1249
   XY=             -0.2190   XZ=             -6.7023   YZ=             -1.9445

  Exact polarizability: 184.831  -7.252 147.555   2.038   0.255  74.990
 Approx polarizability: 216.005  -1.852 201.859   3.342   1.214 103.870

                      1                      2                      3
                      A                      A                      A
 Frequencies --     40.0135                74.1483                86.4052
 Red. masses --      6.7255                 6.7733                 6.5934
 Frc consts  --      0.0063                 0.0219                 0.0290
 IR Inten    --      1.3320                 8.8016                 8.4546

                      4                      5                      6
                      A                      A                      A
 Frequencies --    111.5509               130.0225               173.1485
 Red. masses --      5.3624                 4.9298                 2.9856
 Frc consts  --      0.0393                 0.0491                 0.0527
 IR Inten    --      2.8759                 5.2169                12.9548

                      7                      8                      9
                      A                      A                      A
 Frequencies --    180.9334               226.5875               245.5726
 Red. masses --      1.8567                 2.6187                 4.4103
 Frc consts  --      0.0358                 0.0792                 0.1567
 IR Inten    --     43.3728                99.8357                 2.1664

                     10                     11                     12
                      A                      A                      A
 Frequencies --    327.2920               425.0913               468.5079
 Red. masses --      6.0181                 3.3023                 3.4126
 Frc consts  --      0.3798                 0.3516                 0.4413
 IR Inten    --     24.1703                 0.9969                 2.2825

                     13                     14                     15
                      A                      A                      A
 Frequencies --    473.3746               475.0664               545.0854
 Red. masses --      6.9339                 7.0665                 3.1055
 Frc consts  --      0.9155                 0.9396                 0.5436
 IR Inten    --      2.9848                 5.5071                 8.9457

                     16                     17                     18
                      A                      A                      A
 Frequencies --    551.3129               586.0574               680.6963
 Red. masses --      6.5008                 6.6170                 2.7039
 Frc consts  --      1.1642                 1.3390                 0.7382
 IR Inten    --     13.5651                 6.3250                 0.6657

                     19                     20                     21
                      A                      A                      A
 Frequencies --    730.2795               757.0615               781.6254
 Red. masses --      5.4652                 1.7533                 1.1438
 Frc consts  --      1.7173                 0.5921                 0.4117
 IR Inten    --      1.4017                 9.5517               125.7252

                     22                     23                     24
                      A                      A                      A
 Frequencies --    794.1809               817.7849               858.3941
 Red. masses --      4.5636                 1.2613                 2.2291
 Frc consts  --      1.6959                 0.4970                 0.9677
 IR Inten    --      2.8136                68.3313                34.4823

                     25                     26                     27
                      A                      A                      A
 Frequencies --    898.6686               941.2887               949.2647
 Red. masses --      4.8756                 1.5159                 1.4386
 Frc consts  --      2.3200                 0.7914                 0.7638
 IR Inten    --      1.2670                 1.7715                 0.4403

                     28                     29                     30
                      A                      A                      A
 Frequencies --   1033.0900              1042.6360              1045.9143
 Red. masses --      1.3565                 1.4047                 8.8815
 Frc consts  --      0.8530                 0.8997                 5.7244
 IR Inten    --      1.5856                 0.5013                 2.1459

                     31                     32                     33
                      A                      A                      A
 Frequencies --   1056.7047              1062.7865              1089.0159
 Red. masses --      2.9008                 1.3251                 2.5757
 Frc consts  --      1.9084                 0.8819                 1.7998
 IR Inten    --      3.0903                 0.0666                 2.1593

                     34                     35                     36
                      A                      A                      A
 Frequencies --   1114.4692              1157.1484              1179.7960
 Red. masses --      1.8997                 1.4548                 1.2289
 Frc consts  --      1.3902                 1.1477                 1.0078
 IR Inten    --      3.3382                 9.4087                 0.5304

                     37                     38                     39
                      A                      A                      A
 Frequencies --   1188.4371              1243.9049              1281.5142
 Red. masses --      1.4737                 1.9934                 1.8147
 Frc consts  --      1.2264                 1.8172                 1.7559
 IR Inten    --      3.8938                17.6307                 0.0840

                     40                     41                     42
                      A                      A                      A
 Frequencies --   1327.8707              1347.4444              1373.3527
 Red. masses --      3.8521                 4.5640                 1.1141
 Frc consts  --      4.0018                 4.8823                 1.2380
 IR Inten    --     67.8787                 8.7303                57.3516

                     43                     44                     45
                      A                      A                      A
 Frequencies --   1385.1737              1464.6054              1483.6361
 Red. masses --      2.0559                 1.8924                 2.1346
 Frc consts  --      2.3241                 2.3916                 2.7683
 IR Inten    --      9.4335                 9.3485                 0.8741

                     46                     47                     48
                      A                      A                      A
 Frequencies --   1531.3718              1548.7567              1564.6311
 Red. masses --      2.7574                 1.0932                 3.6991
 Frc consts  --      3.8099                 1.5449                 5.3354
 IR Inten    --      1.8275                46.6934                 5.9596

                     49                     50                     51
                      A                      A                      A
 Frequencies --   1617.9033              1623.6881              1661.1850
 Red. masses --      7.5430                 6.0251                 5.8988
 Frc consts  --     11.6332                 9.3587                 9.5906
 IR Inten    --    255.6870                17.4105                 5.2677

                     52                     53                     54
                      A                      A                      A
 Frequencies --   3172.8313              3175.4629              3186.1134
 Red. masses --      1.0881                 1.0875                 1.0900
 Frc consts  --      6.4541                 6.4607                 6.5192
 IR Inten    --      1.7357                 1.0962                 3.5969

                     55                     56                     57
                      A                      A                      A
 Frequencies --   3189.8869              3190.4604              3201.4577
 Red. masses --      1.0909                 1.0942                 1.0967
 Frc consts  --      6.5404                 6.5620                 6.6228
 IR Inten    --     13.3655                 2.5583                 6.3830

                     58                     59                     60
                      A                      A                      A
 Frequencies --   3209.5024              3588.7307              3880.3891
 Red. masses --      1.0960                 1.0703                 1.0686
 Frc consts  --      6.6517                 8.1218                 9.4798
 IR Inten    --      6.3606              1086.8924                44.5934

 - Thermochemistry -
 -------------------
 Temperature   298.150 Kelvin.  Pressure   1.00000 Atm.
 Atom     1 has atomic number  6 and mass  12.00000

 Molecular mass:   177.05517 amu.
 Principal axes and moments of inertia in atomic units:
                           1         2         3
     Eigenvalues --  1054.532874040.426134997.14367
           X            0.99999  -0.00297  -0.00237
           Y            0.00296   0.99999  -0.00408
           Z            0.00238   0.00408   0.99999
 This molecule is an asymmetric top.
 Rotational symmetry number  1.
 Warning -- assumption of classical behavior for rotation
           may cause significant error
 Rotational temperatures (Kelvin)      0.08213     0.02144     0.01733
 Rotational constants (GHZ):           1.71141     0.44667     0.36115
 Zero-point vibrational energy     445903.8 (Joules/Mol)
                                  106.57355 (Kcal/Mol)
 Warning -- explicit consideration of  17 degrees of freedom as
           vibrations may cause significant error
 Vibrational temperatures:     57.57   106.68   124.32   160.50   187.07
          (Kelvin)            249.12   260.32   326.01   353.32   470.90
                              611.61   674.08   681.08   683.51   784.26
                              793.22   843.21   979.37  1050.71  1089.24
                             1124.58  1142.65  1176.61  1235.04  1292.98
                             1354.30  1365.78  1486.39  1500.12  1504.84
                             1520.36  1529.11  1566.85  1603.47  1664.88
                             1697.46  1709.90  1789.70  1843.81  1910.51
                             1938.67  1975.95  1992.96  2107.24  2134.62
                             2203.30  2228.32  2251.16  2327.80  2336.13
                             2390.07  4565.00  4568.78  4584.11  4589.54
                             4590.36  4606.18  4617.76  5163.38  5583.01

 Zero-point correction=                           0.169836 (Hartree/Particle)
 Thermal correction to Energy=                    0.181739
 Thermal correction to Enthalpy=                  0.182683
 Thermal correction to Gibbs Free Energy=         0.130114
 Sum of electronic and zero-point Energies=           -611.821629
 Sum of electronic and thermal Energies=              -611.809726
 Sum of electronic and thermal Enthalpies=            -611.808782
 Sum of electronic and thermal Free Energies=         -611.861351

                     E (Thermal)             CV                S
                      KCal/Mol        Cal/Mol-Kelvin    Cal/Mol-Kelvin
 Total                  114.043             43.811            110.641
 Electronic               0.000              0.000              1.377
 Translational            0.889              2.981             41.421
 Rotational               0.889              2.981             31.432
 Vibrational            112.266             37.849             36.411
 Vibration     1          0.594              1.981              5.258
 Vibration     2          0.599              1.966              4.040
 Vibration     3          0.601              1.959              3.740
 Vibration     4          0.607              1.940              3.242
 Vibration     5          0.612              1.923              2.946
 Vibration     6          0.627              1.876              2.401
 Vibration     7          0.630              1.866              2.319
 Vibration     8          0.650              1.801              1.906
 Vibration     9          0.660              1.770              1.762
 Vibration    10          0.711              1.621              1.273
 Vibration    11          0.787              1.416              0.875
 Vibration    12          0.826              1.320              0.742
 Vibration    13          0.830              1.309              0.728
 Vibration    14          0.832              1.305              0.723
 Vibration    15          0.900              1.150              0.554
 Vibration    16          0.907              1.137              0.541
 Vibration    17          0.943              1.062              0.474

 Optimization completed.
    -- Stationary point found.
 Normal termination of Gaussian 16 at Tue Feb  5 11:26:22 2019.
