 Gaussian 16, Revision A.03,
 Gaussian 16:  EM64L-G16RevA.03 25-Dec-2016

 ----------------------------------------------------------------------
 # m062x/6-31G(d,p) Opt=(TS,Loose,maxcycle=1000,CalcFC,NoEigenTest) Int
 (Grid=SG1) freq
 ----------------------------------------------------------------------

 -----
 Title
 -----
 Symbolic Z-matrix:
 Charge =  0 Multiplicity = 2

 SCF Done:  E(UM062X) =  -611.784880068     A.U. after   19 cycles
 SCF Done:  E(UM062X) =  -611.785314845     A.U. after   14 cycles
 SCF Done:  E(UM062X) =  -611.785233225     A.U. after   13 cycles
 SCF Done:  E(UM062X) =  -611.785123470     A.U. after   14 cycles
 SCF Done:  E(UM062X) =  -611.784858156     A.U. after   14 cycles
 SCF Done:  E(UM062X) =  -611.785462681     A.U. after   15 cycles
 SCF Done:  E(UM062X) =  -611.785560452     A.U. after   14 cycles
 SCF Done:  E(UM062X) =  -611.785556769     A.U. after   14 cycles
 SCF Done:  E(UM062X) =  -611.785536854     A.U. after   14 cycles
 SCF Done:  E(UM062X) =  -611.785372370     A.U. after   15 cycles
 SCF Done:  E(UM062X) =  -611.783415404     A.U. after   15 cycles
 SCF Done:  E(UM062X) =  -611.783614120     A.U. after   14 cycles
 SCF Done:  E(UM062X) =  -611.783620158     A.U. after   13 cycles
 SCF Done:  E(UM062X) =  -611.783581708     A.U. after   17 cycles
 SCF Done:  E(UM062X) =  -611.783619010     A.U. after   17 cycles
 SCF Done:  E(UM062X) =  -611.783611494     A.U. after   13 cycles
 SCF Done:  E(UM062X) =  -611.783611618     A.U. after   12 cycles
 SCF Done:  E(UM062X) =  -611.783548503     A.U. after   13 cycles
 SCF Done:  E(UM062X) =  -611.783614093     A.U. after   13 cycles
 Optimization completed.
    -- Stationary point found.
 Normal termination of Gaussian 16 at Tue Feb 26 09:11:47 2019.

 ----------------------------------------------------------------------
 #N Geom=AllCheck Guess=TCheck SCRF=Check GenChk UM062X/6-31G(d,p) Freq
 ----------------------------------------------------------------------

 Structure from the checkpoint file:  "/scratch/dinius.ab/QMscratch/Gau-43018.chk"
 -----
 Title
 -----
 Charge =  0 Multiplicity = 2

                         Standard orientation:
 ---------------------------------------------------------------------
 Center     Atomic      Atomic             Coordinates (Angstroms)
 Number     Number       Type             X           Y           Z
 ---------------------------------------------------------------------
      1          6           0        2.888218   -1.668941    0.063203
      2          6           0        3.656413   -0.493801    0.043210
      3          6           0        3.038149    0.740599    0.002280
      4          6           0        1.630390    0.833675   -0.019050
      5          6           0        1.504414   -1.599190    0.041777
      6          6           0        0.865215   -0.356445    0.001117
      7          1           0        0.891497   -2.492753    0.056270
      8          1           0        3.380550   -2.634493    0.093351
      9          1           0        4.739312   -0.555703    0.059118
     10          1           0        3.625850    1.652694   -0.012913
     11          6           0       -0.607976   -0.278839   -0.022363
     12          6           0        0.962877    2.096367   -0.058717
     13          6           0       -0.428256    2.179598   -0.069919
     14          1           0        1.561353    3.001214   -0.073708
     15          6           0       -1.210051    1.038905   -0.050788
     16          1           0       -0.901616    3.155039   -0.088879
     17          1           0       -2.295341    1.080042   -0.032200
     18          8           0       -1.300495   -1.311912   -0.018154
     19          1           0       -3.093201   -1.166678   -0.237091
     20          8           0       -4.039305   -0.981104   -0.415003
     21          8           0       -4.251957    0.099406    0.507911
     22          1           0       -4.970705    0.557953    0.053528
 ---------------------------------------------------------------------

 SCF Done:  E(UM062X) =  -611.783614093     A.U. after    1 cycles

 The electronic state is 2-A.
 Alpha  occ. eigenvalues --  -19.67291 -19.65283 -19.64316 -10.63585 -10.59319
 Alpha  occ. eigenvalues --  -10.58095 -10.57665 -10.57511 -10.57471 -10.57313
 Alpha  occ. eigenvalues --  -10.57203 -10.57130 -10.56693  -1.21692  -1.16627
 Alpha  occ. eigenvalues --   -0.99418  -0.97380  -0.94067  -0.87557  -0.85887
 Alpha  occ. eigenvalues --   -0.81757  -0.72615  -0.71567  -0.67869  -0.61213
 Alpha  occ. eigenvalues --   -0.59965  -0.58594  -0.56691  -0.55816  -0.53570
 Alpha  occ. eigenvalues --   -0.52463  -0.51048  -0.50776  -0.50457  -0.48382
 Alpha  occ. eigenvalues --   -0.46942  -0.45752  -0.45437  -0.42738  -0.41310
 Alpha  occ. eigenvalues --   -0.40936  -0.39439  -0.34019  -0.33441  -0.32116
 Alpha  occ. eigenvalues --   -0.30494  -0.26027
 Alpha virt. eigenvalues --   -0.01774   0.00568   0.06043   0.12074   0.12848
 Alpha virt. eigenvalues --    0.13044   0.14611   0.16333   0.17787   0.20188
 Alpha virt. eigenvalues --    0.21474   0.22542   0.24185   0.24942   0.25384

  Beta  occ. eigenvalues --  -19.67293 -19.65285 -19.63742 -10.63646 -10.59013
  Beta  occ. eigenvalues --  -10.58175 -10.57788 -10.57442 -10.57246 -10.57221
  Beta  occ. eigenvalues --  -10.57217 -10.57078 -10.56722  -1.21692  -1.15151
  Beta  occ. eigenvalues --   -0.99086  -0.97385  -0.93569  -0.87169  -0.85690
  Beta  occ. eigenvalues --   -0.80714  -0.72417  -0.71258  -0.67505  -0.60817
  Beta  occ. eigenvalues --   -0.59617  -0.58226  -0.56645  -0.55719  -0.53352
  Beta  occ. eigenvalues --   -0.52005  -0.50414  -0.50206  -0.48919  -0.48153
  Beta  occ. eigenvalues --   -0.46811  -0.45497  -0.43246  -0.42451  -0.41165
  Beta  occ. eigenvalues --   -0.39388  -0.38279  -0.33100  -0.31618  -0.31387
  Beta  occ. eigenvalues --   -0.30479
  Beta virt. eigenvalues --   -0.10763  -0.00228   0.01978   0.08024   0.12153
  Beta virt. eigenvalues --    0.13121   0.14197   0.14759   0.16367   0.17914
  Beta virt. eigenvalues --    0.20275   0.21598   0.22660   0.24958   0.25223

 Mulliken charges and spin densities:
               1          2
     1  C   -0.125226   0.103606
     2  C   -0.117993  -0.051133
     3  C   -0.144061   0.098239
     4  C    0.057305  -0.110071
     5  C   -0.118269  -0.039980
     6  C   -0.008112   0.104934
     7  H    0.162227   0.000679
     8  H    0.136935  -0.004926
     9  H    0.133108   0.001716
    10  H    0.130491  -0.004513
    11  C    0.383055  -0.060599
    12  C   -0.111542   0.473323
    13  C   -0.135569  -0.184843
    14  H    0.141118  -0.020964
    15  C   -0.118753   0.412582
    16  H    0.142665   0.004836
    17  H    0.162890  -0.019361
    18  O   -0.538955   0.299975
    19  H    0.394274  -0.002796
    20  O   -0.407731  -0.000600
    21  O   -0.372701  -0.000113
    22  H    0.354845   0.000010
 Sum of Mulliken charges =  -0.00000   1.00000

 Dipole moment (field-independent basis, Debye):
    X=              4.0890    Y=              3.4618    Z=             -0.4523  Tot=              5.3767
 Quadrupole moment (field-independent basis, Debye-Ang):
   XX=            -68.4816   YY=            -65.5417   ZZ=            -78.7741
   XY=            -10.4406   XZ=              1.9966   YZ=             -0.7363

  Exact polarizability: 171.613  -9.015 135.834   1.946   0.289  42.613
 Approx polarizability: 203.092  -2.718 188.927   2.143   0.893  59.737

 ******    1 imaginary frequencies (negative Signs) ******

                      1                      2                      3
                      A                      A                      A
 Frequencies --    -37.9617                32.6950                75.9885
 Red. masses --      8.3223                 6.1049                 6.2510
 Frc consts  --      0.0071                 0.0038                 0.0213
 IR Inten    --      9.3634                 2.6340                 1.1482

                      4                      5                      6
                      A                      A                      A
 Frequencies --    114.8659               129.9348               171.8521
 Red. masses --      7.7501                 5.7201                 3.3543
 Frc consts  --      0.0602                 0.0569                 0.0584
 IR Inten    --      8.0514                 3.4639                18.4299

                      7                      8                      9
                      A                      A                      A
 Frequencies --    191.5571               203.5264               243.5209
 Red. masses --      1.6521                 2.4713                 4.0784
 Frc consts  --      0.0357                 0.0603                 0.1425
 IR Inten    --    127.1420                20.1858                 1.2396

                     10                     11                     12
                      A                      A                      A
 Frequencies --    321.4385               419.7383               464.0168
 Red. masses --      5.9087                 3.3348                 3.5716
 Frc consts  --      0.3597                 0.3462                 0.4531
 IR Inten    --     24.0926                 0.8733                 2.7720

                     13                     14                     15
                      A                      A                      A
 Frequencies --    473.4763               474.8738               537.4528
 Red. masses --      6.3207                 7.4604                 3.1776
 Frc consts  --      0.8349                 0.9912                 0.5408
 IR Inten    --      1.1268                 4.4771                 6.3144

                     16                     17                     18
                      A                      A                      A
 Frequencies --    549.8658               575.0384               604.5727
 Red. masses --      5.9633                 2.3054                 1.5572
 Frc consts  --      1.0623                 0.4492                 0.3353
 IR Inten    --     20.8791                57.2408                97.9226

                     19                     20                     21
                      A                      A                      A
 Frequencies --    671.7704               733.1983               746.7096
 Red. masses --      3.1702                 5.8924                 2.0870
 Frc consts  --      0.8429                 1.8663                 0.6856
 IR Inten    --      2.3149                 1.1524                 6.7468

                     22                     23                     24
                      A                      A                      A
 Frequencies --    792.7383               809.3077               834.4814
 Red. masses --      5.4863                 1.3450                 1.8203
 Frc consts  --      2.0314                 0.5190                 0.7468
 IR Inten    --      2.9323                33.2884                62.6919

                     25                     26                     27
                      A                      A                      A
 Frequencies --    894.2178               927.9974               940.4997
 Red. masses --      4.8470                 1.3969                 1.4196
 Frc consts  --      2.2835                 0.7088                 0.7398
 IR Inten    --      1.3299                 1.5743                 2.2549

                     28                     29                     30
                      A                      A                      A
 Frequencies --   1014.1720              1033.3822              1042.4527
 Red. masses --      1.3431                 1.3360                 9.9115
 Frc consts  --      0.8139                 0.8406                 6.3460
 IR Inten    --      1.1634                 1.6080                 3.2619

                     31                     32                     33
                      A                      A                      A
 Frequencies --   1047.5158              1060.6939              1088.5024
 Red. masses --      1.3018                 2.6376                 2.6278
 Frc consts  --      0.8416                 1.7484                 1.8344
 IR Inten    --      0.1484                 1.9677                 2.2160

                     34                     35                     36
                      A                      A                      A
 Frequencies --   1117.2479              1159.0311              1181.4572
 Red. masses --      1.8330                 1.3849                 1.1904
 Frc consts  --      1.3480                 1.0962                 0.9790
 IR Inten    --      2.7553                 8.3560                 0.7625

                     37                     38                     39
                      A                      A                      A
 Frequencies --   1195.3875              1247.9450              1278.0365
 Red. masses --      1.4343                 1.9346                 1.7219
 Frc consts  --      1.2075                 1.7751                 1.6571
 IR Inten    --      4.2612                15.4978                 0.8639

                     40                     41                     42
                      A                      A                      A
 Frequencies --   1299.2427              1344.1071              1367.8237
 Red. masses --      1.0855                 3.9372                 5.4928
 Frc consts  --      1.0796                 4.1909                 6.0549
 IR Inten    --    108.5974                68.3226                10.4479

                     43                     44                     45
                      A                      A                      A
 Frequencies --   1393.4246              1471.3164              1489.9189
 Red. masses --      2.1218                 1.9866                 2.2405
 Frc consts  --      2.4273                 2.5338                 2.9303
 IR Inten    --     13.4775                11.5478                 0.9239

                     46                     47                     48
                      A                      A                      A
 Frequencies --   1542.3248              1578.1329              1596.9065
 Red. masses --      3.0467                 3.7255                 1.1231
 Frc consts  --      4.2701                 5.4667                 1.6875
 IR Inten    --      6.4159                 2.8835                18.6747

                     49                     50                     51
                      A                      A                      A
 Frequencies --   1638.2689              1641.4981              1680.1932
 Red. masses --      7.9861                 6.2924                 6.2464
 Frc consts  --     12.6286                 9.9897                10.3896
 IR Inten    --    205.1920                19.2636                 4.0063

                     52                     53                     54
                      A                      A                      A
 Frequencies --   3185.9431              3193.5587              3196.8805
 Red. masses --      1.0893                 1.0894                 1.0924
 Frc consts  --      6.5143                 6.5459                 6.5777
 IR Inten    --      4.8692                 4.6509                23.9965

                     55                     56                     57
                      A                      A                      A
 Frequencies --   3208.5575              3218.2210              3231.0383
 Red. masses --      1.0901                 1.0933                 1.0947
 Frc consts  --      6.6119                 6.6715                 6.7333
 IR Inten    --      2.4217                 6.7140                 8.2015

                     58                     59                     60
                      A                      A                      A
 Frequencies --   3237.1572              3600.0005              3871.0705
 Red. masses --      1.0966                 1.0707                 1.0681
 Frc consts  --      6.7704                 8.1757                 9.4301
 IR Inten    --     11.2131              1089.4661                49.4046

 - Thermochemistry -
 -------------------
 Temperature   298.150 Kelvin.  Pressure   1.00000 Atm.
 Atom     1 has atomic number  6 and mass  12.00000

 Molecular mass:   177.05517 amu.
 Principal axes and moments of inertia in atomic units:
                           1         2         3
     Eigenvalues --  1055.595404108.262495112.39276
           X            0.99996  -0.00871   0.00098
           Y            0.00871   0.99996  -0.00239
           Z           -0.00096   0.00240   1.00000
 This molecule is an asymmetric top.
 Rotational symmetry number  1.
 Warning -- assumption of classical behavior for rotation
           may cause significant error
 Rotational temperatures (Kelvin)      0.08205     0.02108     0.01694
 Rotational constants (GHZ):           1.70969     0.43930     0.35301
    1 imaginary frequencies ignored.
 Zero-point vibrational energy     444931.5 (Joules/Mol)
                                  106.34119 (Kcal/Mol)
 Warning -- explicit consideration of  17 degrees of freedom as
           vibrations may cause significant error
 Vibrational temperatures:     47.04   109.33   165.27   186.95   247.26
          (Kelvin)            275.61   292.83   350.37   462.48   603.91
                              667.62   681.23   683.24   773.27   791.13
                              827.35   869.85   966.53  1054.91  1074.35
                             1140.57  1164.41  1200.63  1286.58  1335.18
                             1353.17  1459.17  1486.81  1499.86  1507.14
                             1526.10  1566.11  1607.47  1667.59  1699.85
                             1719.90  1795.51  1838.81  1869.32  1933.87
                             1967.99  2004.83  2116.90  2143.66  2219.06
                             2270.58  2297.59  2357.10  2361.75  2417.42
                             4583.86  4594.82  4599.60  4616.40  4630.30
                             4648.74  4657.55  5179.60  5569.61

 Zero-point correction=                           0.169465 (Hartree/Particle)
 Thermal correction to Energy=                    0.180762
 Thermal correction to Enthalpy=                  0.181706
 Thermal correction to Gibbs Free Energy=         0.130514
 Sum of electronic and zero-point Energies=           -611.614149
 Sum of electronic and thermal Energies=              -611.602853
 Sum of electronic and thermal Enthalpies=            -611.601908
 Sum of electronic and thermal Free Energies=         -611.653100

                     E (Thermal)             CV                S
                      KCal/Mol        Cal/Mol-Kelvin    Cal/Mol-Kelvin
 Total                  113.430             42.429            107.741
 Electronic               0.000              0.000              1.377
 Translational            0.889              2.981             41.421
 Rotational               0.889              2.981             31.473
 Vibrational            111.652             36.468             33.470
 Vibration     1          0.594              1.983              5.659
 Vibration     2          0.599              1.965              3.992
 Vibration     3          0.608              1.937              3.185
 Vibration     4          0.612              1.923              2.947
 Vibration     5          0.626              1.877              2.415
 Vibration     6          0.634              1.852              2.213
 Vibration     7          0.639              1.835              2.101
 Vibration     8          0.659              1.773              1.777
 Vibration     9          0.707              1.632              1.303
 Vibration    10          0.782              1.427              0.893
 Vibration    11          0.822              1.330              0.755
 Vibration    12          0.830              1.309              0.728
 Vibration    13          0.832              1.306              0.724
 Vibration    14          0.892              1.167              0.571
 Vibration    15          0.905              1.140              0.544
 Vibration    16          0.931              1.085              0.495
 Vibration    17          0.963              1.022              0.442

                           ! Non-Optimized Parameters !
 Normal termination of Gaussian 16 at Tue Feb 26 09:13:39 2019.
