 Gaussian 16, Revision A.03,
 Gaussian 16:  EM64L-G16RevA.03 25-Dec-2016

 ----------------------------------------------------------------------
 #m062x/6-311+g(2df,2p) Opt=(ModRedun,Loose,maxcycle=1000) Int(Grid=SG1
 ) freq
 ----------------------------------------------------------------------

 -----
 Title
 -----
 Symbolic Z-matrix:
 Charge =  0 Multiplicity = 2

 SCF Done:  E(UM062X) =  -575.956083004     A.U. after   20 cycles
 SCF Done:  E(UM062X) =  -575.967848774     A.U. after   17 cycles
 SCF Done:  E(UM062X) =  -575.970561135     A.U. after   17 cycles
 SCF Done:  E(UM062X) =  -575.972089802     A.U. after   17 cycles
 SCF Done:  E(UM062X) =  -575.974246925     A.U. after   17 cycles
 SCF Done:  E(UM062X) =  -575.974433467     A.U. after   14 cycles
 SCF Done:  E(UM062X) =  -575.974442390     A.U. after   10 cycles
 SCF Done:  E(UM062X) =  -575.975937072     A.U. after   17 cycles
 SCF Done:  E(UM062X) =  -575.977299456     A.U. after   18 cycles
 SCF Done:  E(UM062X) =  -575.977667081     A.U. after   18 cycles
 SCF Done:  E(UM062X) =  -575.978326309     A.U. after   12 cycles
 SCF Done:  E(UM062X) =  -575.978334834     A.U. after   12 cycles
 SCF Done:  E(UM062X) =  -575.978322735     A.U. after   12 cycles
 SCF Done:  E(UM062X) =  -575.978324917     A.U. after   12 cycles
 SCF Done:  E(UM062X) =  -575.978118363     A.U. after   16 cycles
 SCF Done:  E(UM062X) =  -575.978267209     A.U. after   16 cycles
 SCF Done:  E(UM062X) =  -575.978340643     A.U. after   16 cycles
 SCF Done:  E(UM062X) =  -575.978325683     A.U. after   13 cycles
 SCF Done:  E(UM062X) =  -575.978323630     A.U. after   12 cycles
 Optimization completed.
    -- Stationary point found.
 Normal termination of Gaussian 16 at Thu Jan 17 16:18:59 2019.

 ----------------------------------------------------------------------
 #N Geom=AllCheck Guess=TCheck SCRF=Check GenChk UM062X/6-311+G(2df,2p)
  Freq
 ----------------------------------------------------------------------

 Structure from the checkpoint file:  "/scratch/dinius.ab/QMscratch/Gau-46879.chk"
 -----
 Title
 -----
 Charge =  0 Multiplicity = 2

                         Standard orientation:
 ---------------------------------------------------------------------
 Center     Atomic      Atomic             Coordinates (Angstroms)
 Number     Number       Type             X           Y           Z
 ---------------------------------------------------------------------
      1          6           0        1.266357    0.424276    0.703878
      2          6           0        0.363802   -0.617385    0.767049
      3          6           0        0.823528    1.680401    0.193752
      4          6           0       -0.463444    1.860633   -0.207191
      5          1           0        1.533522    2.494675    0.128329
      6          6           0       -0.978997   -0.458156    0.361226
      7          1           0        0.684887   -1.582493    1.141562
      8          6           0       -1.405698    0.800457   -0.135660
      9          1           0       -0.789532    2.818829   -0.591782
     10          6           0       -1.916119   -1.518669    0.434458
     11          6           0       -3.209088   -1.336946    0.031974
     12          1           0       -1.587143   -2.476761    0.816763
     13          6           0       -3.631178   -0.084270   -0.465336
     14          1           0       -3.914841   -2.153633    0.092098
     15          6           0       -2.748902    0.958334   -0.545066
     16          1           0       -3.067168    1.919487   -0.928792
     17          1           0       -4.654842    0.044773   -0.787652
     18          6           0        2.658149    0.241608    1.071918
     19          1           0        3.213523    0.027741    0.136450
     20          1           0        2.881055   -0.629933    1.680104
     21          1           0        3.193799    1.134422    1.382266
     22          8           0        3.730121   -0.163175   -0.675570
     23          8           0        3.061113   -1.249743   -1.240359
     24          1           0        3.626417   -1.995459   -1.007923
 ---------------------------------------------------------------------

 SCF Done:  E(UM062X) =  -575.978323630     A.U. after    2 cycles

 The electronic state is 2-A.
 Alpha  occ. eigenvalues --  -19.68888 -19.67604 -10.55878 -10.55537 -10.55465
 Alpha  occ. eigenvalues --  -10.54987 -10.54762 -10.54741 -10.54702 -10.54665
 Alpha  occ. eigenvalues --  -10.54621 -10.54562 -10.54470  -1.28406  -1.03427
 Alpha  occ. eigenvalues --   -0.99044  -0.93982  -0.88507  -0.86715  -0.82837
 Alpha  occ. eigenvalues --   -0.79431  -0.71396  -0.69590  -0.68692  -0.63970
 Alpha  occ. eigenvalues --   -0.60152  -0.59739  -0.58839  -0.56675  -0.53527
 Alpha  occ. eigenvalues --   -0.52360  -0.51804  -0.49866  -0.48852  -0.47749
 Alpha  occ. eigenvalues --   -0.47205  -0.46591  -0.43453  -0.42548  -0.40326
 Alpha  occ. eigenvalues --   -0.40094  -0.39203  -0.38093  -0.35673  -0.32511
 Alpha  occ. eigenvalues --   -0.28558  -0.24677
 Alpha virt. eigenvalues --   -0.01816   0.00667   0.01180   0.01515   0.01922
 Alpha virt. eigenvalues --    0.02842   0.03226   0.03485   0.04907   0.05296
 Alpha virt. eigenvalues --    0.05898   0.06469   0.07074   0.07326   0.08022

  Beta  occ. eigenvalues --  -19.68801 -19.66713 -10.55961 -10.55538 -10.55452
  Beta  occ. eigenvalues --  -10.54870 -10.54777 -10.54718 -10.54705 -10.54641
  Beta  occ. eigenvalues --  -10.54618 -10.54561 -10.53875  -1.26697  -1.01327
  Beta  occ. eigenvalues --   -0.98880  -0.93710  -0.88223  -0.86146  -0.82644
  Beta  occ. eigenvalues --   -0.78139  -0.71244  -0.69001  -0.68599  -0.62119
  Beta  occ. eigenvalues --   -0.59605  -0.58705  -0.57928  -0.56238  -0.52729
  Beta  occ. eigenvalues --   -0.52151  -0.51136  -0.49563  -0.48719  -0.47288
  Beta  occ. eigenvalues --   -0.46915  -0.46070  -0.43206  -0.41231  -0.40085
  Beta  occ. eigenvalues --   -0.39203  -0.38614  -0.36723  -0.35031  -0.30390
  Beta  occ. eigenvalues --   -0.27470
  Beta virt. eigenvalues --   -0.07181  -0.01190   0.00848   0.01506   0.01764
  Beta virt. eigenvalues --    0.02307   0.02937   0.03307   0.03607   0.05113
  Beta virt. eigenvalues --    0.05395   0.06134   0.06494   0.07152   0.07439

 Mulliken charges and spin densities:
               1          2
     1  C    0.320760  -0.193750
     2  C    0.024524   0.234272
     3  C   -0.508233   0.086588
     4  C   -0.179308  -0.057819
     5  H    0.158060  -0.002815
     6  C    0.255492  -0.073759
     7  H    0.155483  -0.010660
     8  C    0.394277   0.089587
     9  H    0.157159   0.002767
    10  C   -0.224764   0.066476
    11  C   -0.404654  -0.034172
    12  H    0.155595  -0.002845
    13  C   -0.343276   0.069260
    14  H    0.147960   0.001734
    15  C   -0.235292  -0.052537
    16  H    0.156444   0.001796
    17  H    0.150656  -0.004689
    18  C   -0.840120   0.611243
    19  H    0.579033   0.012506
    20  H    0.174587  -0.028872
    21  H    0.183936  -0.023725
    22  O   -0.346118   0.276239
    23  O   -0.185502   0.033557
    24  H    0.253301  -0.000382
 Sum of Mulliken charges =  -0.00000   1.00000

 Dipole moment (field-independent basis, Debye):
    X=             -0.3330    Y=             -0.9848    Z=              1.4198  Tot=              1.7597
 Quadrupole moment (field-independent basis, Debye-Ang):
   XX=            -70.7460   YY=            -65.6345   ZZ=            -82.1381
   XY=             -4.2110   XZ=              7.6343   YZ=             -2.5985

  Exact polarizability: 228.269  10.976 140.417  12.163  -6.697  96.494
 Approx polarizability: 266.228  19.612 194.907  21.777 -13.626 130.292

 ******    4 imaginary frequencies (negative Signs) ******

                      1                      2                      3
                      A                      A                      A
 Frequencies --  -1294.6052              -700.5996              -221.1696
 Red. masses --      1.0393                 1.2402                 6.1823
 Frc consts  --      1.0263                 0.3587                 0.1782
 IR Inten    --     24.8311                12.6452                 5.5412

                      4                      5                      6
                      A                      A                      A
 Frequencies --   -159.7741                72.7024               131.5901
 Red. masses --      6.4618                 5.4841                 5.1397
 Frc consts  --      0.0972                 0.0171                 0.0524
 IR Inten    --      1.5382                 3.3573                 0.3064

                      7                      8                      9
                      A                      A                      A
 Frequencies --    175.8343               247.9636               305.7460
 Red. masses --      3.4814                 3.2618                 4.6095
 Frc consts  --      0.0634                 0.1182                 0.2539
 IR Inten    --      1.2611                 0.7983                 0.0726

                     10                     11                     12
                      A                      A                      A
 Frequencies --    402.3321               404.6344               447.4538
 Red. masses --      3.9759                 3.1439                 4.2922
 Frc consts  --      0.3792                 0.3033                 0.5063
 IR Inten    --      2.8576                 0.2725                 3.7606

                     13                     14                     15
                      A                      A                      A
 Frequencies --    467.6405               483.3216               491.3408
 Red. masses --      3.0472                 2.2469                 1.1489
 Frc consts  --      0.3926                 0.3092                 0.1634
 IR Inten    --     10.8699                39.8441                64.4258

                     16                     17                     18
                      A                      A                      A
 Frequencies --    525.4921               535.7396               628.8131
 Red. masses --      6.1184                 3.3633                 6.4026
 Frc consts  --      0.9955                 0.5688                 1.4916
 IR Inten    --      0.2002                 0.8389                 3.1292

                     19                     20                     21
                      A                      A                      A
 Frequencies --    660.5199               712.6200               758.6272
 Red. masses --      2.6011                 5.2058                 1.3262
 Frc consts  --      0.6686                 1.5576                 0.4497
 IR Inten    --      0.8998                 1.1030                34.6554

                     22                     23                     24
                      A                      A                      A
 Frequencies --    783.4322               791.7308               796.8882
 Red. masses --      1.8454                 2.8025                 2.3882
 Frc consts  --      0.6673                 1.0350                 0.8936
 IR Inten    --      2.2154                 0.5802                 1.8884

                     25                     26                     27
                      A                      A                      A
 Frequencies --    832.7718               883.0691               904.7680
 Red. masses --      1.4559                 1.4717                 3.4075
 Frc consts  --      0.5949                 0.6762                 1.6435
 IR Inten    --     32.0174                22.9426                 6.0336

                     28                     29                     30
                      A                      A                      A
 Frequencies --    919.9987               924.9749               970.7268
 Red. masses --      1.7692                 1.8000                 3.2770
 Frc consts  --      0.8823                 0.9074                 1.8193
 IR Inten    --      1.8693                33.5043                11.9207

                     31                     32                     33
                      A                      A                      A
 Frequencies --    987.7329              1001.6641              1008.7952
 Red. masses --      1.3529                 1.4135                 3.5489
 Frc consts  --      0.7776                 0.8356                 2.1279
 IR Inten    --      2.1450                 0.9789                62.4002

                     34                     35                     36
                      A                      A                      A
 Frequencies --   1017.1132              1050.5081              1077.6529
 Red. masses --      1.3428                 2.2916                 1.2708
 Frc consts  --      0.8185                 1.4900                 0.8695
 IR Inten    --      0.4057                 4.2905                13.0945

                     37                     38                     39
                      A                      A                      A
 Frequencies --   1152.0209              1163.2042              1183.8512
 Red. masses --      1.6225                 1.4566                 1.1984
 Frc consts  --      1.2687                 1.1612                 0.9896
 IR Inten    --      4.5330                 0.1945                 2.9430

                     40                     41                     42
                      A                      A                      A
 Frequencies --   1190.8381              1202.6071              1237.6970
 Red. masses --      2.0003                 2.3748                 2.2911
 Frc consts  --      1.6713                 2.0236                 2.0679
 IR Inten    --      2.4983                28.9739                 2.1695

                     43                     44                     45
                      A                      A                      A
 Frequencies --   1283.5992              1295.2759              1395.5656
 Red. masses --      1.6333                 1.7971                 2.6658
 Frc consts  --      1.5856                 1.7764                 3.0590
 IR Inten    --      3.3708                 5.7358                 1.2935

                     46                     47                     48
                      A                      A                      A
 Frequencies --   1398.2943              1421.6064              1440.7016
 Red. masses --      2.4209                 4.9671                 1.1186
 Frc consts  --      2.7888                 5.9144                 1.3680
 IR Inten    --      3.7478                 0.7847                35.7585

                     49                     50                     51
                      A                      A                      A
 Frequencies --   1466.0461              1484.2586              1505.3698
 Red. masses --      1.2362                 2.5361                 2.2530
 Frc consts  --      1.5654                 3.2918                 3.0081
 IR Inten    --      3.3126                 1.2127                 4.3201

                     52                     53                     54
                      A                      A                      A
 Frequencies --   1557.4830              1629.0118              1659.4334
 Red. masses --      3.4742                 6.5226                 5.7339
 Frc consts  --      4.9654                10.1980                 9.3030
 IR Inten    --      7.6242                 1.6816                 2.8961

                     55                     56                     57
                      A                      A                      A
 Frequencies --   1687.4003              3088.6017              3146.2459
 Red. masses --      6.1119                 1.0551                 1.0907
 Frc consts  --     10.2533                 5.9301                 6.3612
 IR Inten    --      1.4903                13.2407                 4.6611

                     58                     59                     60
                      A                      A                      A
 Frequencies --   3156.2517              3159.6516              3164.1900
 Red. masses --      1.0876                 1.0891                 1.0884
 Frc consts  --      6.3833                 6.4060                 6.4204
 IR Inten    --      0.6664                 3.8823                 0.0840

                     61                     62                     63
                      A                      A                      A
 Frequencies --   3173.3320              3174.5628              3180.1248
 Red. masses --      1.1084                 1.0962                 1.0948
 Frc consts  --      6.5762                 6.5092                 6.5232
 IR Inten    --      2.0217                 8.7220                10.3986

                     64                     65                     66
                      A                      A                      A
 Frequencies --   3200.6813              3355.6493              3887.8935
 Red. masses --      1.0958                 1.0390                 1.0684
 Frc consts  --      6.6138                 6.8929                 9.5152
 IR Inten    --      9.3680               202.3723                71.2792

 - Thermochemistry -
 -------------------
 Temperature   298.150 Kelvin.  Pressure   1.00000 Atm.
 Atom     1 has atomic number  6 and mass  12.00000

 Molecular mass:   175.07590 amu.
 Principal axes and moments of inertia in atomic units:
                           1         2         3
     Eigenvalues --  1054.104823981.674584469.90251
           X            0.99992   0.00222   0.01273
           Y           -0.00179   0.99943  -0.03374
           Z           -0.01279   0.03372   0.99935
 This molecule is an asymmetric top.
 Rotational symmetry number  1.
 Warning -- assumption of classical behavior for rotation
           may cause significant error
 Rotational temperatures (Kelvin)      0.08217     0.02175     0.01938
 Rotational constants (GHZ):           1.71211     0.45326     0.40375
    4 imaginary frequencies ignored.
 Zero-point vibrational energy     499115.8 (Joules/Mol)
                                  119.29154 (Kcal/Mol)
 Warning -- explicit consideration of  13 degrees of freedom as
           vibrations may cause significant error
 Vibrational temperatures:    104.60   189.33   252.99   356.76   439.90
          (Kelvin)            578.87   582.18   643.79   672.83   695.39
                              706.93   756.07   770.81   904.72   950.34
                             1025.30  1091.50  1127.18  1139.12  1146.54
                             1198.17  1270.54  1301.76  1323.67  1330.83
                             1396.66  1421.13  1441.17  1451.43  1463.40
                             1511.45  1550.50  1657.50  1673.59  1703.30
                             1713.35  1730.28  1780.77  1846.81  1863.61
                             2007.91  2011.83  2045.37  2072.85  2109.31
                             2135.52  2165.89  2240.87  2343.78  2387.55
                             2427.79  4443.81  4526.75  4541.14  4546.03
                             4552.56  4565.72  4567.49  4575.49  4605.07
                             4828.03  5593.81

 Zero-point correction=                           0.190103 (Hartree/Particle)
 Thermal correction to Energy=                    0.199326
 Thermal correction to Enthalpy=                  0.200270
 Thermal correction to Gibbs Free Energy=         0.154510
 Sum of electronic and zero-point Energies=           -575.788220
 Sum of electronic and thermal Energies=              -575.778998
 Sum of electronic and thermal Enthalpies=            -575.778054
 Sum of electronic and thermal Free Energies=         -575.823814

                     E (Thermal)             CV                S
                      KCal/Mol        Cal/Mol-Kelvin    Cal/Mol-Kelvin
 Total                  125.079             38.591             96.310
 Electronic               0.000              0.000              1.377
 Translational            0.889              2.981             41.387
 Rotational               0.889              2.981             31.307
 Vibrational            123.301             32.629             22.239
 Vibration     1          0.599              1.967              4.079
 Vibration     2          0.612              1.922              2.923
 Vibration     3          0.628              1.872              2.372
 Vibration     4          0.662              1.766              1.745
 Vibration     5          0.696              1.663              1.385
 Vibration     6          0.768              1.465              0.954
 Vibration     7          0.770              1.460              0.946
 Vibration     8          0.807              1.367              0.804
 Vibration     9          0.825              1.322              0.744
 Vibration    10          0.839              1.287              0.701
 Vibration    11          0.847              1.269              0.680
 Vibration    12          0.880              1.194              0.597
 Vibration    13          0.891              1.171              0.575

 Optimization completed.
    -- Stationary point found.
 Normal termination of Gaussian 16 at Fri Jan 18 01:12:20 2019.
