 Gaussian 16, Revision A.03,
 Gaussian 16:  EM64L-G16RevA.03 25-Dec-2016

 ----------------------------------------------------------------------
 # m062x/6-31+g(d,p) Opt=(Loose,maxcycle=1000,CalcFC) Int(Grid=SG1) fre
 q
 ----------------------------------------------------------------------

 --------------------------
 Rxn 908 Products with HOOH
 --------------------------
 Symbolic Z-matrix:
 Charge =  0 Multiplicity = 2

 SCF Done:  E(UM062X) =  -575.868129088     A.U. after   20 cycles
 SCF Done:  E(UM062X) =  -575.873916671     A.U. after   20 cycles
 SCF Done:  E(UM062X) =  -575.820637040     A.U. after   22 cycles
 SCF Done:  E(UM062X) =  -575.877605409     A.U. after   20 cycles
 SCF Done:  E(UM062X) =  -575.860727670     A.U. after   20 cycles
 SCF Done:  E(UM062X) =  -575.882192988     A.U. after   19 cycles
 SCF Done:  E(UM062X) =  -575.878871854     A.U. after   21 cycles
 SCF Done:  E(UM062X) =  -575.882077733     A.U. after   18 cycles
 SCF Done:  E(UM062X) =  -575.882995424     A.U. after   16 cycles
 SCF Done:  E(UM062X) =  -575.882413833     A.U. after   17 cycles
 SCF Done:  E(UM062X) =  -575.885364032     A.U. after   18 cycles
 SCF Done:  E(UM062X) =  -575.884917959     A.U. after   18 cycles
 SCF Done:  E(UM062X) =  -575.885443872     A.U. after   16 cycles
 SCF Done:  E(UM062X) =  -575.885454952     A.U. after   17 cycles
 SCF Done:  E(UM062X) =  -575.885454072     A.U. after   17 cycles
 SCF Done:  E(UM062X) =  -575.885470807     A.U. after   16 cycles
 SCF Done:  E(UM062X) =  -575.885475930     A.U. after   15 cycles
 SCF Done:  E(UM062X) =  -575.885475316     A.U. after   14 cycles
 SCF Done:  E(UM062X) =  -575.885475579     A.U. after   12 cycles
 Optimization completed.
    -- Stationary point found.
 Normal termination of Gaussian 16 at Tue Feb 19 10:49:44 2019.

 ----------------------------------------------------------------------
 #N Geom=AllCheck Guess=TCheck SCRF=Check GenChk UM062X/6-31+G(d,p) Fre
 q
 ----------------------------------------------------------------------

 Structure from the checkpoint file:  "/scratch/dinius.ab/QMscratch/Gau-48596.chk"
 --------------------------
 Rxn 908 Products with HOOH
 --------------------------
 Charge =  0 Multiplicity = 2

                         Standard orientation:
 ---------------------------------------------------------------------
 Center     Atomic      Atomic             Coordinates (Angstroms)
 Number     Number       Type             X           Y           Z
 ---------------------------------------------------------------------
      1          6           0        1.754248   -0.779439   -0.641949
      2          6           0        0.754872    0.030859   -1.207453
      3          6           0        1.373979   -1.670183    0.429086
      4          6           0        0.094987   -1.713938    0.889674
      5          1           0        2.137185   -2.301910    0.872753
      6          6           0       -0.575569    0.011158   -0.730357
      7          1           0        1.012438    0.712006   -2.015170
      8          6           0       -0.922209   -0.872251    0.335988
      9          1           0       -0.172086   -2.385109    1.701232
     10          6           0       -1.581319    0.860097   -1.271865
     11          6           0       -2.864270    0.831842   -0.778522
     12          1           0       -1.316666    1.533925   -2.082140
     13          6           0       -3.204452   -0.047619    0.276403
     14          1           0       -3.620603    1.484834   -1.200543
     15          6           0       -2.250487   -0.881167    0.818879
     16          1           0       -2.506401   -1.555667    1.631350
     17          1           0       -4.219310   -0.061083    0.660160
     18          6           0        3.090504   -0.707958   -1.074831
     19          1           0        2.436884    1.387336    0.384459
     20          1           0        3.380425   -0.047238   -1.883802
     21          1           0        3.854310   -1.327567   -0.621530
     22          8           0        2.017436    2.187502    0.741552
     23          8           0        1.075577    1.626144    1.650449
     24          1           0        0.248012    1.682890    1.146912
 ---------------------------------------------------------------------

 SCF Done:  E(UM062X) =  -575.885475579     A.U. after    1 cycles

 The electronic state is 2-A.
 Alpha  occ. eigenvalues --  -19.69303 -19.69283 -10.58209 -10.57913 -10.57849
 Alpha  occ. eigenvalues --  -10.57757 -10.57578 -10.57131 -10.57067 -10.57035
 Alpha  occ. eigenvalues --  -10.56936 -10.56907 -10.56902  -1.24755  -0.99923
 Alpha  occ. eigenvalues --   -0.99730  -0.94797  -0.89277  -0.87369  -0.83612
 Alpha  occ. eigenvalues --   -0.78563  -0.71980  -0.69567  -0.68906  -0.61085
 Alpha  occ. eigenvalues --   -0.60452  -0.59862  -0.57476  -0.56383  -0.53557
 Alpha  occ. eigenvalues --   -0.53083  -0.50779  -0.50172  -0.49659  -0.48343
 Alpha  occ. eigenvalues --   -0.48087  -0.47482  -0.44038  -0.42539  -0.41457
 Alpha  occ. eigenvalues --   -0.40013  -0.37918  -0.37035  -0.35881  -0.34132
 Alpha  occ. eigenvalues --   -0.29382  -0.23866
 Alpha virt. eigenvalues --   -0.02379   0.00813   0.01179   0.01628   0.01897
 Alpha virt. eigenvalues --    0.02496   0.03366   0.03677   0.04831   0.05272
 Alpha virt. eigenvalues --    0.05657   0.06194   0.06750   0.07580   0.08026

  Beta  occ. eigenvalues --  -19.69297 -19.69271 -10.58358 -10.57959 -10.57779
  Beta  occ. eigenvalues --  -10.57327 -10.57260 -10.57074 -10.57024 -10.57016
  Beta  occ. eigenvalues --  -10.56968 -10.56929 -10.56891  -1.24738  -0.99792
  Beta  occ. eigenvalues --   -0.99623  -0.94468  -0.88982  -0.86823  -0.83378
  Beta  occ. eigenvalues --   -0.77059  -0.71808  -0.69389  -0.68292  -0.61061
  Beta  occ. eigenvalues --   -0.60220  -0.59627  -0.57091  -0.56346  -0.53277
  Beta  occ. eigenvalues --   -0.52810  -0.50518  -0.50043  -0.49433  -0.48040
  Beta  occ. eigenvalues --   -0.47482  -0.46972  -0.43890  -0.41274  -0.41147
  Beta  occ. eigenvalues --   -0.39954  -0.37712  -0.36462  -0.35511  -0.32021
  Beta  occ. eigenvalues --   -0.28324
  Beta virt. eigenvalues --   -0.07928  -0.01583   0.01190   0.01538   0.01817
  Beta virt. eigenvalues --    0.01950   0.02702   0.03468   0.03803   0.04862
  Beta virt. eigenvalues --    0.05438   0.05791   0.06328   0.06750   0.07534

 Mulliken charges and spin densities:
               1          2
     1  C    0.237560  -0.275743
     2  C    0.049518   0.427988
     3  C   -0.605350   0.116768
     4  C    0.245398  -0.106079
     5  H    0.158126  -0.004928
     6  C   -0.763586  -0.138922
     7  H    0.155805  -0.018311
     8  C   -0.389945   0.145034
     9  H    0.158641   0.003609
    10  C    0.080225   0.153697
    11  C   -0.192422  -0.073216
    12  H    0.161019  -0.004618
    13  C   -0.167824   0.142933
    14  H    0.160460   0.002165
    15  C    0.249631  -0.104478
    16  H    0.158785   0.002563
    17  H    0.160363  -0.005866
    18  C   -0.277571   0.812476
    19  H    0.376273  -0.000307
    20  H    0.163975  -0.040423
    21  H    0.164803  -0.039236
    22  O   -0.345255  -0.001490
    23  O   -0.324134   0.005949
    24  H    0.385505   0.000436
 Sum of Mulliken charges =   0.00000   1.00000

 Dipole moment (field-independent basis, Debye):
    X=             -1.1893    Y=             -1.9036    Z=             -1.6359  Tot=              2.7775
 Quadrupole moment (field-independent basis, Debye-Ang):
   XX=            -67.7361   YY=            -81.8573   ZZ=            -78.9993
   XY=             -7.6849   XZ=             -6.0478   YZ=            -10.6739

  Exact polarizability: 219.389 -21.667 112.111 -18.194 -23.757 110.849
 Approx polarizability: 270.214 -27.875 145.669 -25.424 -37.232 148.810

                      1                      2                      3
                      A                      A                      A
 Frequencies --     27.6389                46.8243                78.2250
 Red. masses --      6.5151                 5.7047                 3.6794
 Frc consts  --      0.0029                 0.0074                 0.0133
 IR Inten    --      1.1073                 5.3004                25.5624

                      4                      5                      6
                      A                      A                      A
 Frequencies --    101.2863               116.2373               149.4357
 Red. masses --      4.6021                 4.2655                 5.0385
 Frc consts  --      0.0278                 0.0340                 0.0663
 IR Inten    --      1.4230                 2.7050                 8.3404

                      7                      8                      9
                      A                      A                      A
 Frequencies --    180.5214               212.6880               271.8069
 Red. masses --      3.2461                 1.3517                 3.1874
 Frc consts  --      0.0623                 0.0360                 0.1387
 IR Inten    --      3.2075                58.1053                 0.2770

                     10                     11                     12
                      A                      A                      A
 Frequencies --    278.0547               386.3784               404.7880
 Red. masses --      3.8917                 2.9194                 3.3507
 Frc consts  --      0.1773                 0.2568                 0.3235
 IR Inten    --      0.2979                 3.1432                 1.1390

                     13                     14                     15
                      A                      A                      A
 Frequencies --    458.6815               470.1148               509.4089
 Red. masses --      5.1748                 2.3503                 2.6146
 Frc consts  --      0.6414                 0.3060                 0.3997
 IR Inten    --      0.0983                29.1569                 9.0101

                     16                     17                     18
                      A                      A                      A
 Frequencies --    517.4997               521.5107               533.1502
 Red. masses --      3.2809                 1.4682                 1.0817
 Frc consts  --      0.5177                 0.2353                 0.1811
 IR Inten    --     39.1530               133.9206                42.2867

                     19                     20                     21
                      A                      A                      A
 Frequencies --    620.3654               629.6472               728.6854
 Red. masses --      6.3794                 3.0689                 5.4168
 Frc consts  --      1.4465                 0.7168                 1.6946
 IR Inten    --      3.6134                 7.2109                 0.2700

                     22                     23                     24
                      A                      A                      A
 Frequencies --    738.1051               756.5017               774.8485
 Red. masses --      3.7226                 1.2555                 1.4249
 Frc consts  --      1.1949                 0.4234                 0.5041
 IR Inten    --      1.2866                74.3020                 0.2449

                     25                     26                     27
                      A                      A                      A
 Frequencies --    783.6582               838.6574               878.1043
 Red. masses --      4.7448                 1.3805                 1.4175
 Frc consts  --      1.7168                 0.5721                 0.6440
 IR Inten    --      0.1927                41.9500                40.7294

                     28                     29                     30
                      A                      A                      A
 Frequencies --    898.4495               900.4247               953.6436
 Red. masses --      1.6486                 2.8555                 2.8176
 Frc consts  --      0.7841                 1.3641                 1.5097
 IR Inten    --      4.3581                 0.8844                 1.4265

                     31                     32                     33
                      A                      A                      A
 Frequencies --    985.4076              1002.9567              1007.7127
 Red. masses --      1.3350                 1.3257                 1.6749
 Frc consts  --      0.7638                 0.7857                 1.0021
 IR Inten    --      2.7078                 0.8955                 0.1518

                     34                     35                     36
                      A                      A                      A
 Frequencies --   1014.2368              1039.5365              1053.8857
 Red. masses --      1.2961                14.6423                 2.1623
 Frc consts  --      0.7855                 9.3226                 1.4150
 IR Inten    --      0.0781                 1.7527                 2.9060

                     37                     38                     39
                      A                      A                      A
 Frequencies --   1141.0368              1162.2707              1171.7652
 Red. masses --      1.5870                 1.3763                 1.1666
 Frc consts  --      1.2174                 1.0954                 0.9437
 IR Inten    --      1.8168                 0.5231                 0.1917

                     40                     41                     42
                      A                      A                      A
 Frequencies --   1208.0627              1240.9274              1285.4294
 Red. masses --      1.4887                 2.1942                 1.7812
 Frc consts  --      1.2801                 1.9908                 1.7340
 IR Inten    --      4.8681                 1.2222                 4.7412

                     43                     44                     45
                      A                      A                      A
 Frequencies --   1290.3502              1384.7794              1392.9705
 Red. masses --      1.7200                 2.0287                 1.1488
 Frc consts  --      1.6873                 2.2921                 1.3133
 IR Inten    --      5.5686                12.3319                25.5924

                     46                     47                     48
                      A                      A                      A
 Frequencies --   1402.7246              1436.0114              1477.6732
 Red. masses --      3.9810                 4.8902                 1.3676
 Frc consts  --      4.6152                 5.9414                 1.7594
 IR Inten    --      1.5152                 0.6852                11.3397

                     49                     50                     51
                      A                      A                      A
 Frequencies --   1481.2795              1482.2884              1488.0042
 Red. masses --      1.5455                 2.4471                 1.3920
 Frc consts  --      1.9980                 3.1679                 1.8160
 IR Inten    --      4.4681                 5.6048                 0.5671

                     52                     53                     54
                      A                      A                      A
 Frequencies --   1557.5820              1611.4211              1662.3432
 Red. masses --      3.6608                 5.7209                 6.4081
 Frc consts  --      5.2328                 8.7525                10.4332
 IR Inten    --      6.3456                 0.9190                 2.0701

                     55                     56                     57
                      A                      A                      A
 Frequencies --   1683.5282              3164.9872              3179.8749
 Red. masses --      6.1423                 1.0892                 1.0870
 Frc consts  --     10.2571                 6.4285                 6.4758
 IR Inten    --      1.1997                 1.5679                 3.3913

                     58                     59                     60
                      A                      A                      A
 Frequencies --   3187.1244              3190.5644              3191.2786
 Red. masses --      1.0565                 1.0866                 1.0886
 Frc consts  --      6.3229                 6.5169                 6.5320
 IR Inten    --      5.5731                 2.7097                 2.6659

                     61                     62                     63
                      A                      A                      A
 Frequencies --   3195.6743              3210.1754              3212.4496
 Red. masses --      1.0940                 1.0966                 1.0970
 Frc consts  --      6.5825                 6.6581                 6.6702
 IR Inten    --     12.5019                13.5749                10.7973

                     64                     65                     66
                      A                      A                      A
 Frequencies --   3291.9022              3821.1236              3826.8881
 Red. masses --      1.1191                 1.0674                 1.0693
 Frc consts  --      7.1452                 9.1825                 9.2265
 IR Inten    --      3.9193                27.1126                78.8928

 - Thermochemistry -
 -------------------
 Temperature   298.150 Kelvin.  Pressure   1.00000 Atm.
 Atom     1 has atomic number  6 and mass  12.00000

 Molecular mass:   175.07590 amu.
 Principal axes and moments of inertia in atomic units:
                           1         2         3
     Eigenvalues --  1526.102002976.745903328.20248
           X            0.99965  -0.02280  -0.01327
           Y            0.02109   0.99292  -0.11687
           Z            0.01584   0.11655   0.99306
 This molecule is an asymmetric top.
 Rotational symmetry number  1.
 Warning -- assumption of classical behavior for rotation
           may cause significant error
 Rotational temperatures (Kelvin)      0.05676     0.02910     0.02602
 Rotational constants (GHZ):           1.18258     0.60628     0.54226
 Zero-point vibrational energy     501842.8 (Joules/Mol)
                                  119.94331 (Kcal/Mol)
 Warning -- explicit consideration of  19 degrees of freedom as
           vibrations may cause significant error
 Vibrational temperatures:     39.77    67.37   112.55   145.73   167.24
          (Kelvin)            215.00   259.73   306.01   391.07   400.06
                              555.91   582.40   659.94   676.39   732.93
                              744.57   750.34   767.08   892.57   905.92
                             1048.42  1061.97  1088.44  1114.83  1127.51
                             1206.64  1263.40  1292.67  1295.51  1372.08
                             1417.78  1443.03  1449.87  1459.26  1495.66
                             1516.31  1641.70  1672.25  1685.91  1738.13
                             1785.42  1849.45  1856.53  1992.39  2004.17
                             2018.21  2066.10  2126.04  2131.23  2132.68
                             2140.91  2241.01  2318.48  2391.74  2422.22
                             4553.71  4575.13  4585.56  4590.51  4591.54
                             4597.86  4618.73  4622.00  4736.31  5497.74
                             5506.04

 Zero-point correction=                           0.191142 (Hartree/Particle)
 Thermal correction to Energy=                    0.203980
 Thermal correction to Enthalpy=                  0.204924
 Thermal correction to Gibbs Free Energy=         0.150232
 Sum of electronic and zero-point Energies=           -575.694334
 Sum of electronic and thermal Energies=              -575.681496
 Sum of electronic and thermal Enthalpies=            -575.680551
 Sum of electronic and thermal Free Energies=         -575.735243

                     E (Thermal)             CV                S
                      KCal/Mol        Cal/Mol-Kelvin    Cal/Mol-Kelvin
 Total                  127.999             47.855            115.108
 Electronic               0.000              0.000              1.377
 Translational            0.889              2.981             41.387
 Rotational               0.889              2.981             31.092
 Vibrational            126.222             41.893             41.251
 Vibration     1          0.593              1.984              5.992
 Vibration     2          0.595              1.979              4.947
 Vibration     3          0.600              1.964              3.935
 Vibration     4          0.604              1.948              3.429
 Vibration     5          0.608              1.936              3.162
 Vibration     6          0.618              1.903              2.679
 Vibration     7          0.629              1.866              2.323
 Vibration     8          0.644              1.822              2.020
 Vibration     9          0.675              1.725              1.585
 Vibration    10          0.679              1.714              1.546
 Vibration    11          0.755              1.499              1.014
 Vibration    12          0.770              1.460              0.945
 Vibration    13          0.817              1.342              0.770
 Vibration    14          0.827              1.316              0.737
 Vibration    15          0.865              1.229              0.635
 Vibration    16          0.873              1.211              0.616
 Vibration    17          0.876              1.202              0.606
 Vibration    18          0.888              1.177              0.580
 Vibration    19          0.980              0.989              0.416

                           ! Non-Optimized Parameters !
 Normal termination of Gaussian 16 at Tue Feb 19 10:54:54 2019.
