 Gaussian 16, Revision A.03,
 Gaussian 16:  EM64L-G16RevA.03 25-Dec-2016

 ----------------------------------------------------------------------
 #m062x/6-311+g(2df,2p) Opt=(ModRedun,Loose,maxcycle=1000) Int(Grid=SG1
 ) freq
 ----------------------------------------------------------------------

 -----
 Title
 -----
 Symbolic Z-matrix:
 Charge =  0 Multiplicity = 2

 SCF Done:  E(UM062X) =  -575.978323526     A.U. after   20 cycles
 SCF Done:  E(UM062X) =  -576.017028767     A.U. after   17 cycles
 SCF Done:  E(UM062X) =  -576.028584830     A.U. after   19 cycles
 SCF Done:  E(UM062X) =  -576.030147650     A.U. after   18 cycles
 SCF Done:  E(UM062X) =  -576.036175818     A.U. after   19 cycles
 SCF Done:  E(UM062X) =  -576.016994960     A.U. after   21 cycles
 SCF Done:  E(UM062X) =  -576.043244883     A.U. after   17 cycles
 SCF Done:  E(UM062X) =  -576.046070300     A.U. after   17 cycles
 SCF Done:  E(UM062X) =  -576.048267701     A.U. after   17 cycles
 SCF Done:  E(UM062X) =  -576.050627726     A.U. after   20 cycles
 SCF Done:  E(UM062X) =  -576.052517667     A.U. after   13 cycles
 SCF Done:  E(UM062X) =  -576.052530301     A.U. after   14 cycles
 SCF Done:  E(UM062X) =  -576.052536071     A.U. after   13 cycles
 SCF Done:  E(UM062X) =  -576.052545035     A.U. after   13 cycles
 SCF Done:  E(UM062X) =  -576.052542379     A.U. after   11 cycles
 SCF Done:  E(UM062X) =  -576.052540645     A.U. after   13 cycles
 SCF Done:  E(UM062X) =  -576.052530371     A.U. after   14 cycles
 SCF Done:  E(UM062X) =  -576.052536467     A.U. after   11 cycles
 SCF Done:  E(UM062X) =  -576.052539978     A.U. after   10 cycles
 Optimization completed.
    -- Stationary point found.
 Normal termination of Gaussian 16 at Tue Feb  5 11:27:45 2019.

 ----------------------------------------------------------------------
 #N Geom=AllCheck Guess=TCheck SCRF=Check GenChk UM062X/6-311+G(2df,2p)
  Freq
 ----------------------------------------------------------------------

 Structure from the checkpoint file:  "/scratch/dinius.ab/QMscratch/Gau-14186.chk"
 -----
 Title
 -----
 Charge =  0 Multiplicity = 2

                         Standard orientation:
 ---------------------------------------------------------------------
 Center     Atomic      Atomic             Coordinates (Angstroms)
 Number     Number       Type             X           Y           Z
 ---------------------------------------------------------------------
      1          6           0        1.269444   -0.659619    0.902867
      2          6           0        0.174437   -1.340288    0.358083
      3          6           0        1.112803    0.743625    1.188507
      4          6           0       -0.054814    1.383570    0.939510
      5          1           0        1.955964    1.274620    1.610766
      6          6           0       -1.044135   -0.689662    0.085383
      7          1           0        0.264537   -2.396694    0.133661
      8          6           0       -1.173281    0.694855    0.378215
      9          1           0       -0.160225    2.436578    1.169896
     10          6           0       -2.151756   -1.375239   -0.473488
     11          6           0       -3.325586   -0.718940   -0.723827
     12          1           0       -2.052367   -2.429240   -0.699375
     13          6           0       -3.450694    0.653766   -0.428402
     14          1           0       -4.164578   -1.252273   -1.148678
     15          6           0       -2.394034    1.342894    0.110688
     16          1           0       -2.485413    2.396865    0.340426
     17          1           0       -4.385297    1.159480   -0.626754
     18          6           0        2.486429   -1.304705    1.153622
     19          1           0        2.823229   -0.678096   -1.072764
     20          1           0        2.595121   -2.365771    0.978977
     21          1           0        3.332348   -0.761762    1.547803
     22          8           0        3.076470   -0.046163   -1.760599
     23          8           0        3.310184    1.123638   -0.995978
     24          1           0        2.490575    1.614956   -1.128285
 ---------------------------------------------------------------------

 SCF Done:  E(UM062X) =  -576.052539978     A.U. after    1 cycles

 The electronic state is 2-A.
 Alpha  occ. eigenvalues --  -19.67522 -19.67142 -10.56746 -10.56418 -10.56305
 Alpha  occ. eigenvalues --  -10.56069 -10.56006 -10.55714 -10.55612 -10.55458
 Alpha  occ. eigenvalues --  -10.55409 -10.55322 -10.55221  -1.25435  -1.00128
 Alpha  occ. eigenvalues --   -0.99885  -0.94814  -0.89260  -0.87263  -0.83577
 Alpha  occ. eigenvalues --   -0.78449  -0.71908  -0.69511  -0.68813  -0.61788
 Alpha  occ. eigenvalues --   -0.60512  -0.59747  -0.57574  -0.57253  -0.53453
 Alpha  occ. eigenvalues --   -0.52990  -0.50853  -0.50745  -0.49616  -0.48567
 Alpha  occ. eigenvalues --   -0.48295  -0.47367  -0.43917  -0.42671  -0.41368
 Alpha  occ. eigenvalues --   -0.39869  -0.38472  -0.37483  -0.36401  -0.34330
 Alpha  occ. eigenvalues --   -0.29516  -0.23961
 Alpha virt. eigenvalues --   -0.02401   0.00589   0.00897   0.01108   0.01592
 Alpha virt. eigenvalues --    0.02141   0.02961   0.03402   0.05043   0.05219
 Alpha virt. eigenvalues --    0.05362   0.05534   0.06230   0.07023   0.08179

  Beta  occ. eigenvalues --  -19.67519 -19.67110 -10.56881 -10.56395 -10.56307
  Beta  occ. eigenvalues --  -10.55848 -10.55724 -10.55590 -10.55560 -10.55417
  Beta  occ. eigenvalues --  -10.55403 -10.55301 -10.55237  -1.25386  -1.00071
  Beta  occ. eigenvalues --   -0.99666  -0.94491  -0.88949  -0.86724  -0.83350
  Beta  occ. eigenvalues --   -0.76967  -0.71737  -0.69340  -0.68192  -0.61735
  Beta  occ. eigenvalues --   -0.60284  -0.59511  -0.57217  -0.57099  -0.53168
  Beta  occ. eigenvalues --   -0.52734  -0.50768  -0.50503  -0.49386  -0.48020
  Beta  occ. eigenvalues --   -0.47824  -0.46847  -0.43761  -0.41407  -0.41134
  Beta  occ. eigenvalues --   -0.39806  -0.38337  -0.37107  -0.35770  -0.32064
  Beta  occ. eigenvalues --   -0.28521
  Beta virt. eigenvalues --   -0.08053  -0.01611   0.00583   0.01114   0.01565
  Beta virt. eigenvalues --    0.01967   0.02420   0.02959   0.03438   0.05053
  Beta virt. eigenvalues --    0.05205   0.05415   0.05595   0.06478   0.06941

 Mulliken charges and spin densities:
               1          2
     1  C    0.651859  -0.359355
     2  C   -0.197520   0.442235
     3  C   -0.557572   0.145126
     4  C   -0.328646  -0.104729
     5  H    0.185570  -0.007906
     6  C    0.346653  -0.148415
     7  H    0.169928  -0.019973
     8  C    0.392070   0.176159
     9  H    0.163996   0.004627
    10  C   -0.249041   0.138096
    11  C   -0.397399  -0.064615
    12  H    0.158543  -0.005706
    13  C   -0.354911   0.136293
    14  H    0.149996   0.003270
    15  C   -0.236316  -0.097734
    16  H    0.158895   0.003372
    17  H    0.152106  -0.009194
    18  C   -0.661286   0.850578
    19  H    0.316634  -0.001271
    20  H    0.191044  -0.040910
    21  H    0.198966  -0.048891
    22  O   -0.303667   0.006264
    23  O   -0.200838   0.002945
    24  H    0.250935  -0.000266
 Sum of Mulliken charges =   0.00000   1.00000

 Dipole moment (field-independent basis, Debye):
    X=             -2.5174    Y=             -0.2591    Z=              1.2897  Tot=              2.8403
 Quadrupole moment (field-independent basis, Debye-Ang):
   XX=            -81.6532   YY=            -66.6461   ZZ=            -84.1466
   XY=             -3.6278   XZ=             10.0938   YZ=              2.5068

  Exact polarizability: 218.179 -17.092 139.523  34.349   7.528  97.767
 Approx polarizability: 262.168 -21.287 193.532  45.226  13.260 131.630

                      1                      2                      3
                      A                      A                      A
 Frequencies --     25.9737                44.3783                92.8929
 Red. masses --      6.7097                 5.1617                 5.4588
 Frc consts  --      0.0027                 0.0060                 0.0278
 IR Inten    --      0.3927                 0.1021                 3.1349

                      4                      5                      6
                      A                      A                      A
 Frequencies --    114.6660               131.5055               176.9326
 Red. masses --      4.7557                 6.0409                 4.9057
 Frc consts  --      0.0368                 0.0616                 0.0905
 IR Inten    --      1.1755                 2.3723                 2.6545

                      7                      8                      9
                      A                      A                      A
 Frequencies --    192.8183               278.3661               279.0400
 Red. masses --      3.6083                 3.3241                 3.6422
 Frc consts  --      0.0790                 0.1518                 0.1671
 IR Inten    --      4.2098                 0.8371                 0.1547

                     10                     11                     12
                      A                      A                      A
 Frequencies --    388.5437               403.5696               411.0466
 Red. masses --      2.0775                 1.2034                 3.3425
 Frc consts  --      0.1848                 0.1155                 0.3327
 IR Inten    --     12.1809                80.3402                 1.0336

                     13                     14                     15
                      A                      A                      A
 Frequencies --    461.5422               468.3320               512.9800
 Red. masses --      4.9684                 2.1582                 1.2720
 Frc consts  --      0.6236                 0.2789                 0.1972
 IR Inten    --      0.4626                20.2894                 2.3108

                     16                     17                     18
                      A                      A                      A
 Frequencies --    520.4655               525.0593               590.0347
 Red. masses --      6.2471                 2.4862                 1.0762
 Frc consts  --      0.9970                 0.4038                 0.2207
 IR Inten    --      0.1223                 0.3316               196.6727

                     19                     20                     21
                      A                      A                      A
 Frequencies --    624.7534               652.7523               732.7933
 Red. masses --      6.4680                 2.5582                 5.2471
 Frc consts  --      1.4874                 0.6422                 1.6601
 IR Inten    --      3.6664                 4.9059                 0.8530

                     22                     23                     24
                      A                      A                      A
 Frequencies --    742.7536               764.5406               782.8712
 Red. masses --      1.2673                 1.4968                 4.3553
 Frc consts  --      0.4119                 0.5155                 1.5727
 IR Inten    --     76.8307                 3.2599                 0.0804

                     25                     26                     27
                      A                      A                      A
 Frequencies --    786.3851               840.6284               872.2959
 Red. masses --      2.5690                 1.3183                 1.5952
 Frc consts  --      0.9360                 0.5489                 0.7151
 IR Inten    --      0.1455                14.8336                55.1711

                     28                     29                     30
                      A                      A                      A
 Frequencies --    905.3505               905.5656               956.1569
 Red. masses --      1.8793                 3.4490                 3.1466
 Frc consts  --      0.9076                 1.6664                 1.6949
 IR Inten    --      2.2801                 0.2411                 2.2727

                     31                     32                     33
                      A                      A                      A
 Frequencies --    985.2427              1011.0573              1012.5192
 Red. masses --      1.3730                 1.6037                 1.3759
 Frc consts  --      0.7852                 0.9659                 0.8311
 IR Inten    --      3.1031                 0.2809                 0.1350

                     34                     35                     36
                      A                      A                      A
 Frequencies --   1015.9431              1050.2314              1052.5101
 Red. masses --      1.3414                14.0739                 2.2736
 Frc consts  --      0.8157                 9.1461                 1.4839
 IR Inten    --      0.1889                 2.1319                 2.4518

                     37                     38                     39
                      A                      A                      A
 Frequencies --   1137.0035              1157.9786              1171.9334
 Red. masses --      1.6657                 1.4723                 1.2153
 Frc consts  --      1.2688                 1.1632                 0.9834
 IR Inten    --      2.5770                 0.4115                 0.7929

                     40                     41                     42
                      A                      A                      A
 Frequencies --   1206.8056              1232.7226              1294.3405
 Red. masses --      1.5238                 2.2167                 1.7120
 Frc consts  --      1.3075                 1.9847                 1.6898
 IR Inten    --      4.5328                 1.8341                 3.5732

                     43                     44                     45
                      A                      A                      A
 Frequencies --   1295.7489              1384.2863              1387.2746
 Red. masses --      1.7950                 2.2521                 4.2911
 Frc consts  --      1.7756                 2.5427                 4.8657
 IR Inten    --      5.1719                 3.6333                 0.2565

                     46                     47                     48
                      A                      A                      A
 Frequencies --   1393.7765              1418.1222              1468.8706
 Red. masses --      1.1238                 3.5403                 1.0936
 Frc consts  --      1.2862                 4.1949                 1.3902
 IR Inten    --     50.9884                 1.8263                31.3346

                     49                     50                     51
                      A                      A                      A
 Frequencies --   1475.6491              1483.7586              1490.7016
 Red. masses --      2.7752                 1.8508                 1.3068
 Frc consts  --      3.5605                 2.4007                 1.7110
 IR Inten    --      3.3091                 1.6165                 1.2651

                     52                     53                     54
                      A                      A                      A
 Frequencies --   1547.9039              1598.9420              1649.1194
 Red. masses --      3.2852                 5.4355                 6.1453
 Frc consts  --      4.6377                 8.1875                 9.8468
 IR Inten    --      7.1337                 0.6596                 1.3815

                     55                     56                     57
                      A                      A                      A
 Frequencies --   1672.3441              3142.2322              3148.8158
 Red. masses --      5.6998                 1.0540                 1.0883
 Frc consts  --      9.3920                 6.1312                 6.3578
 IR Inten    --      1.7787                 1.1894                 0.3451

                     58                     59                     60
                      A                      A                      A
 Frequencies --   3156.4244              3166.4942              3173.5481
 Red. masses --      1.0880                 1.0898                 1.0934
 Frc consts  --      6.3868                 6.4382                 6.4880
 IR Inten    --      1.9259                 5.1203                 2.5096

                     61                     62                     63
                      A                      A                      A
 Frequencies --   3175.5982              3181.3657              3191.4046
 Red. masses --      1.0896                 1.0944                 1.0974
 Frc consts  --      6.4742                 6.5258                 6.5855
 IR Inten    --      2.9929                10.3809                 8.7284

                     64                     65                     66
                      A                      A                      A
 Frequencies --   3246.5341              3817.0145              3833.2269
 Red. masses --      1.1184                 1.0672                 1.0686
 Frc consts  --      6.9450                 9.1611                 9.2507
 IR Inten    --      0.6931               162.7874                31.5327

 - Thermochemistry -
 -------------------
 Temperature   298.150 Kelvin.  Pressure   1.00000 Atm.
 Atom     1 has atomic number  6 and mass  12.00000

 Molecular mass:   175.07590 amu.
 Principal axes and moments of inertia in atomic units:
                           1         2         3
     Eigenvalues --  1238.894063906.654374108.51038
           X            0.99984  -0.00880   0.01555
           Y            0.00794   0.99847   0.05473
           Z           -0.01601  -0.05460   0.99838
 This molecule is an asymmetric top.
 Rotational symmetry number  1.
 Warning -- assumption of classical behavior for rotation
           may cause significant error
 Rotational temperatures (Kelvin)      0.06991     0.02217     0.02108
 Rotational constants (GHZ):           1.45674     0.46197     0.43927
 Zero-point vibrational energy     502506.0 (Joules/Mol)
                                  120.10181 (Kcal/Mol)
 Warning -- explicit consideration of  18 degrees of freedom as
           vibrations may cause significant error
 Vibrational temperatures:     37.37    63.85   133.65   164.98   189.21
          (Kelvin)            254.57   277.42   400.51   401.48   559.03
                              580.65   591.40   664.06   673.83   738.06
                              748.83   755.44   848.93   898.88   939.16
                             1054.33  1068.66  1100.00  1126.38  1131.43
                             1209.48  1255.04  1302.60  1302.91  1375.70
                             1417.54  1454.69  1456.79  1461.72  1511.05
                             1514.33  1635.89  1666.07  1686.15  1736.32
                             1773.61  1862.27  1864.29  1991.68  1995.98
                             2005.33  2040.36  2113.38  2123.13  2134.80
                             2144.79  2227.09  2300.52  2372.71  2406.13
                             4520.97  4530.44  4541.39  4555.88  4566.03
                             4568.98  4577.28  4591.72  4671.04  5491.83
                             5515.16

 Zero-point correction=                           0.191394 (Hartree/Particle)
 Thermal correction to Energy=                    0.203771
 Thermal correction to Enthalpy=                  0.204715
 Thermal correction to Gibbs Free Energy=         0.151030
 Sum of electronic and zero-point Energies=           -575.861146
 Sum of electronic and thermal Energies=              -575.848769
 Sum of electronic and thermal Enthalpies=            -575.847825
 Sum of electronic and thermal Free Energies=         -575.901510

                     E (Thermal)             CV                S
                      KCal/Mol        Cal/Mol-Kelvin    Cal/Mol-Kelvin
 Total                  127.868             47.117            112.989
 Electronic               0.000              0.000              1.377
 Translational            0.889              2.981             41.387
 Rotational               0.889              2.981             31.364
 Vibrational            126.091             41.156             38.860
 Vibration     1          0.593              1.985              6.115
 Vibration     2          0.595              1.980              5.053
 Vibration     3          0.602              1.954              3.598
 Vibration     4          0.608              1.937              3.188
 Vibration     5          0.612              1.922              2.924
 Vibration     6          0.628              1.871              2.361
 Vibration     7          0.635              1.850              2.201
 Vibration     8          0.679              1.714              1.544
 Vibration     9          0.679              1.712              1.540
 Vibration    10          0.757              1.495              1.006
 Vibration    11          0.769              1.462              0.950
 Vibration    12          0.775              1.446              0.923
 Vibration    13          0.819              1.335              0.762
 Vibration    14          0.826              1.320              0.742
 Vibration    15          0.868              1.221              0.626
 Vibration    16          0.875              1.205              0.609
 Vibration    17          0.880              1.195              0.598
 Vibration    18          0.947              1.053              0.467

                           ! Non-Optimized Parameters !
 Normal termination of Gaussian 16 at Tue Feb  5 12:06:00 2019.
