 Gaussian 16, Revision A.03,
 Gaussian 16:  EM64L-G16RevA.03 25-Dec-2016

 ----------------------------------------------------------------------
 # m062x/6-31G(d,p) Opt=(TS,Loose,maxcycle=1000,CalcFC,NoEigenTest) Int
 (Grid=SG1) freq
 ----------------------------------------------------------------------

 -----
 Title
 -----
 Symbolic Z-matrix:
 Charge =  0 Multiplicity = 2

 SCF Done:  E(UM062X) =  -575.789656081     A.U. after   18 cycles
 SCF Done:  E(UM062X) =  -575.828078466     A.U. after   17 cycles
 SCF Done:  E(UM062X) =  -575.836481598     A.U. after   16 cycles
 SCF Done:  E(UM062X) =  -575.839709667     A.U. after   16 cycles
 SCF Done:  E(UM062X) =  -575.845219743     A.U. after   17 cycles
 SCF Done:  E(UM062X) =  -575.846018969     A.U. after   19 cycles
 SCF Done:  E(UM062X) =  -575.848884150     A.U. after   19 cycles
 SCF Done:  E(UM062X) =  -575.853942219     A.U. after   16 cycles
 SCF Done:  E(UM062X) =  -575.857484654     A.U. after   18 cycles
 SCF Done:  E(UM062X) =  -575.855131786     A.U. after   19 cycles
 SCF Done:  E(UM062X) =  -575.859698521     A.U. after   13 cycles
 SCF Done:  E(UM062X) =  -575.859682820     A.U. after   10 cycles
 SCF Done:  E(UM062X) =  -575.859609977     A.U. after   17 cycles
 SCF Done:  E(UM062X) =  -575.859686132     A.U. after   16 cycles
 SCF Done:  E(UM062X) =  -575.859683536     A.U. after   14 cycles
 SCF Done:  E(UM062X) =  -575.859693993     A.U. after   14 cycles
 SCF Done:  E(UM062X) =  -575.859697293     A.U. after   12 cycles
 SCF Done:  E(UM062X) =  -575.859696045     A.U. after   10 cycles
 SCF Done:  E(UM062X) =  -575.859697248     A.U. after    9 cycles
 Optimization completed.
    -- Stationary point found.
 Normal termination of Gaussian 16 at Thu Feb 21 16:01:51 2019.

 ----------------------------------------------------------------------
 #N Geom=AllCheck Guess=TCheck SCRF=Check GenChk UM062X/6-31G(d,p) Freq
 ----------------------------------------------------------------------

 Structure from the checkpoint file:  "/scratch/dinius.ab/QMscratch/Gau-447217.chk"
 -----
 Title
 -----
 Charge =  0 Multiplicity = 2

                         Standard orientation:
 ---------------------------------------------------------------------
 Center     Atomic      Atomic             Coordinates (Angstroms)
 Number     Number       Type             X           Y           Z
 ---------------------------------------------------------------------
      1          6           0        1.421104    1.226720    0.435413
      2          6           0        0.745594    0.045645    0.783417
      3          6           0        0.676236    2.244733   -0.265455
      4          6           0       -0.634249    2.068724   -0.578537
      5          1           0        1.188666    3.162603   -0.536803
      6          6           0       -0.612618   -0.159147    0.457283
      7          1           0        1.285488   -0.730717    1.319324
      8          6           0       -1.325042    0.863719   -0.232741
      9          1           0       -1.183232    2.843138   -1.105888
     10          6           0       -1.293279   -1.360288    0.793002
     11          6           0       -2.614258   -1.533275    0.464196
     12          1           0       -0.746447   -2.138226    1.317969
     13          6           0       -3.318739   -0.514088   -0.216797
     14          1           0       -3.122423   -2.455622    0.723921
     15          6           0       -2.683816    0.658345   -0.557257
     16          1           0       -3.220740    1.441126   -1.084865
     17          1           0       -4.362031   -0.660456   -0.475054
     18          6           0        2.780194    1.414387    0.742935
     19          1           0        2.630662   -0.621310   -0.746741
     20          1           0        3.342628    0.656358    1.273931
     21          1           0        3.288533    2.331707    0.474060
     22          8           0        3.059871   -1.483654   -0.629874
     23          8           0        1.962888   -2.362463   -0.881655
     24          1           0        1.870052   -2.792519   -0.020375
 ---------------------------------------------------------------------

 SCF Done:  E(UM062X) =  -575.859697248     A.U. after    1 cycles

 The electronic state is 2-A.
 Alpha  occ. eigenvalues --  -19.68547 -19.68177 -10.57026 -10.56539 -10.56505
 Alpha  occ. eigenvalues --  -10.56474 -10.56382 -10.56032 -10.55887 -10.55869
 Alpha  occ. eigenvalues --  -10.55765 -10.55670 -10.55640  -1.23915  -0.99306
 Alpha  occ. eigenvalues --   -0.98638  -0.93622  -0.88147  -0.86147  -0.82493
 Alpha  occ. eigenvalues --   -0.77419  -0.70905  -0.68521  -0.67787  -0.59806
 Alpha  occ. eigenvalues --   -0.59075  -0.58779  -0.56687  -0.56390  -0.52554
 Alpha  occ. eigenvalues --   -0.52060  -0.49660  -0.49296  -0.48382  -0.47276
 Alpha  occ. eigenvalues --   -0.47127  -0.46377  -0.42988  -0.41497  -0.40308
 Alpha  occ. eigenvalues --   -0.39026  -0.38418  -0.35615  -0.34457  -0.32827
 Alpha  occ. eigenvalues --   -0.28272  -0.22715
 Alpha virt. eigenvalues --   -0.00697   0.03075   0.06440   0.09901   0.12709
 Alpha virt. eigenvalues --    0.14237   0.14837   0.15152   0.17140   0.18376
 Alpha virt. eigenvalues --    0.19806   0.20392   0.21549   0.22692   0.23225

  Beta  occ. eigenvalues --  -19.68535 -19.68171 -10.57179 -10.56566 -10.56415
  Beta  occ. eigenvalues --  -10.56140 -10.56001 -10.55988 -10.55901 -10.55813
  Beta  occ. eigenvalues --  -10.55744 -10.55706 -10.55623  -1.23898  -0.99281
  Beta  occ. eigenvalues --   -0.98428  -0.93292  -0.87837  -0.85582  -0.82259
  Beta  occ. eigenvalues --   -0.75867  -0.70731  -0.68353  -0.67156  -0.59683
  Beta  occ. eigenvalues --   -0.58941  -0.58548  -0.56672  -0.55995  -0.52324
  Beta  occ. eigenvalues --   -0.51716  -0.49393  -0.49204  -0.48162  -0.46966
  Beta  occ. eigenvalues --   -0.46447  -0.45860  -0.42836  -0.40200  -0.40054
  Beta  occ. eigenvalues --   -0.38977  -0.38374  -0.34626  -0.34291  -0.30700
  Beta  occ. eigenvalues --   -0.27231
  Beta virt. eigenvalues --   -0.06126   0.00212   0.05075   0.07204   0.10026
  Beta virt. eigenvalues --    0.12859   0.14281   0.15330   0.15905   0.17548
  Beta virt. eigenvalues --    0.18666   0.20086   0.20738   0.21641   0.22804

 Mulliken charges and spin densities:
               1          2
     1  C    0.074135  -0.205620
     2  C   -0.193121   0.361654
     3  C   -0.145957   0.110416
     4  C   -0.129524  -0.088580
     5  H    0.121430  -0.004892
     6  C    0.084550  -0.097771
     7  H    0.109875  -0.016771
     8  C    0.049296   0.134116
     9  H    0.125568   0.003356
    10  C   -0.129135   0.095232
    11  C   -0.129609  -0.057191
    12  H    0.109513  -0.004417
    13  C   -0.126707   0.117883
    14  H    0.124743   0.001974
    15  C   -0.143406  -0.067406
    16  H    0.123005   0.002325
    17  H    0.124855  -0.005584
    18  C   -0.314763   0.797690
    19  H    0.360822  -0.002987
    20  H    0.143734  -0.038223
    21  H    0.132415  -0.039842
    22  O   -0.370622   0.001915
    23  O   -0.350768   0.002484
    24  H    0.349671   0.000241
 Sum of Mulliken charges =  -0.00000   1.00000

 Dipole moment (field-independent basis, Debye):
    X=             -1.4521    Y=              1.0355    Z=              1.3779  Tot=              2.2538
 Quadrupole moment (field-independent basis, Debye-Ang):
   XX=            -73.7382   YY=            -68.7323   ZZ=            -79.2254
   XY=              6.3833   XZ=              6.5523   YZ=             -9.4661

  Exact polarizability: 190.505  36.492 130.787  23.318 -24.018  63.720
 Approx polarizability: 239.462  46.114 173.269  32.037 -34.310  88.291

 ******    1 imaginary frequencies (negative Signs) ******

                      1                      2                      3
                      A                      A                      A
 Frequencies --    -59.4327                33.9860                48.3052
 Red. masses --      4.9317                 7.5012                 5.2214
 Frc consts  --      0.0103                 0.0051                 0.0072
 IR Inten    --      0.8204                 0.6728                 0.4821

                      4                      5                      6
                      A                      A                      A
 Frequencies --    101.5072               125.5409               136.1445
 Red. masses --      6.5689                 4.0168                 6.9810
 Frc consts  --      0.0399                 0.0373                 0.0762
 IR Inten    --      2.1535                 1.0843                 3.3632

                      7                      8                      9
                      A                      A                      A
 Frequencies --    188.6366               276.9850               286.3337
 Red. masses --      3.6596                 3.1080                 4.0119
 Frc consts  --      0.0767                 0.1405                 0.1938
 IR Inten    --      0.0791                 0.6512                 0.1800

                     10                     11                     12
                      A                      A                      A
 Frequencies --    394.9842               406.2168               421.5302
 Red. masses --      2.2244                 2.5897                 1.3130
 Frc consts  --      0.2045                 0.2518                 0.1375
 IR Inten    --     10.1252                17.5420                65.5995

                     13                     14                     15
                      A                      A                      A
 Frequencies --    461.4269               472.8738               511.1929
 Red. masses --      4.9266                 1.9112                 1.8299
 Frc consts  --      0.6180                 0.2518                 0.2817
 IR Inten    --      0.7501                44.4794                 3.4505

                     16                     17                     18
                      A                      A                      A
 Frequencies --    520.4137               524.1243               571.2233
 Red. masses --      5.9693                 1.8294                 1.0859
 Frc consts  --      0.9525                 0.2961                 0.2088
 IR Inten    --      2.1412                 1.3086               316.7558

                     19                     20                     21
                      A                      A                      A
 Frequencies --    626.8168               646.0903               726.9368
 Red. masses --      6.1687                 2.7772                 1.3322
 Frc consts  --      1.4280                 0.6830                 0.4148
 IR Inten    --      4.8198                 2.8894                42.3451

                     22                     23                     24
                      A                      A                      A
 Frequencies --    732.3984               759.7707               772.6456
 Red. masses --      5.3927                 1.3588                 3.6168
 Frc consts  --      1.7043                 0.4621                 1.2721
 IR Inten    --      0.5164                16.4479                 2.9070

                     25                     26                     27
                      A                      A                      A
 Frequencies --    788.2163               832.6783               873.2881
 Red. masses --      4.7491                 1.4171                 1.3923
 Frc consts  --      1.7384                 0.5789                 0.6256
 IR Inten    --      0.2298                33.9443                27.1092

                     28                     29                     30
                      A                      A                      A
 Frequencies --    895.8093               903.1078               959.2547
 Red. masses --      1.5061                 3.3943                 2.7762
 Frc consts  --      0.7121                 1.6311                 1.5051
 IR Inten    --      3.5248                 0.1687                 0.9404

                     31                     32                     33
                      A                      A                      A
 Frequencies --    970.3550               993.0387              1004.8544
 Red. masses --      1.3411                 1.3136                 1.3090
 Frc consts  --      0.7440                 0.7632                 0.7787
 IR Inten    --      2.2059                 0.5409                 0.2848

                     34                     35                     36
                      A                      A                      A
 Frequencies --   1007.8798              1041.3971              1056.9919
 Red. masses --      1.7196                14.1502                 2.1623
 Frc consts  --      1.0292                 9.0416                 1.4234
 IR Inten    --      0.7542                 3.2323                 1.5770

                     37                     38                     39
                      A                      A                      A
 Frequencies --   1141.9486              1160.8464              1169.7129
 Red. masses --      1.5395                 1.3786                 1.1724
 Frc consts  --      1.1829                 1.0945                 0.9451
 IR Inten    --      2.2079                 0.9412                 0.3688

                     40                     41                     42
                      A                      A                      A
 Frequencies --   1205.0060              1238.9031              1287.3273
 Red. masses --      1.4807                 2.2043                 1.8007
 Frc consts  --      1.2668                 1.9934                 1.7582
 IR Inten    --      5.0176                 0.6022                 5.6022

                     43                     44                     45
                      A                      A                      A
 Frequencies --   1292.6640              1360.5954              1389.7503
 Red. masses --      1.7311                 1.1045                 2.2246
 Frc consts  --      1.7043                 1.2047                 2.5315
 IR Inten    --      6.3912                52.0374                 4.6232

                     46                     47                     48
                      A                      A                      A
 Frequencies --   1404.0834              1436.9591              1485.9147
 Red. masses --      4.0573                 4.5769                 1.7944
 Frc consts  --      4.7127                 5.5682                 2.3343
 IR Inten    --      0.5625                 0.9591                 2.2771

                     49                     50                     51
                      A                      A                      A
 Frequencies --   1487.2429              1489.0982              1502.4497
 Red. masses --      1.3007                 2.4264                 1.3196
 Frc consts  --      1.6950                 3.1701                 1.7551
 IR Inten    --      0.2911                 5.6191                 1.5875

                     52                     53                     54
                      A                      A                      A
 Frequencies --   1562.1226              1617.4278              1671.9292
 Red. masses --      3.7214                 5.7781                 6.4571
 Frc consts  --      5.3504                 8.9060                10.6347
 IR Inten    --      6.0816                 0.5793                 1.9978

                     55                     56                     57
                      A                      A                      A
 Frequencies --   1691.4847              3173.1646              3178.3919
 Red. masses --      6.1314                 1.0539                 1.0876
 Frc consts  --     10.3358                 6.2520                 6.4733
 IR Inten    --      1.9965                 2.8642                 2.7819

                     58                     59                     60
                      A                      A                      A
 Frequencies --   3183.1899              3184.4834              3190.6576
 Red. masses --      1.0866                 1.0889                 1.0903
 Frc consts  --      6.4871                 6.5060                 6.5396
 IR Inten    --      1.1158                14.9681                 3.3338

                     61                     62                     63
                      A                      A                      A
 Frequencies --   3200.9843              3201.6352              3227.3058
 Red. masses --      1.0964                 1.0965                 1.0957
 Frc consts  --      6.6189                 6.6224                 6.7242
 IR Inten    --     26.7898                 6.7390                13.6010

                     64                     65                     66
                      A                      A                      A
 Frequencies --   3278.3317              3853.5599              3892.7971
 Red. masses --      1.1181                 1.0676                 1.0688
 Frc consts  --      7.0801                 9.3406                 9.5428
 IR Inten    --      3.7994                93.7729                18.6521

 - Thermochemistry -
 -------------------
 Temperature   298.150 Kelvin.  Pressure   1.00000 Atm.
 Atom     1 has atomic number  6 and mass  12.00000

 Molecular mass:   175.07590 amu.
 Principal axes and moments of inertia in atomic units:
                           1         2         3
     Eigenvalues --  1639.411532984.256634148.54074
           X            0.99957   0.02676   0.01160
           Y           -0.02643   0.99927  -0.02753
           Z           -0.01233   0.02721   0.99955
 This molecule is an asymmetric top.
 Rotational symmetry number  1.
 Warning -- assumption of classical behavior for rotation
           may cause significant error
 Rotational temperatures (Kelvin)      0.05283     0.02902     0.02088
 Rotational constants (GHZ):           1.10085     0.60475     0.43503
    1 imaginary frequencies ignored.
 Zero-point vibrational energy     503824.8 (Joules/Mol)
                                  120.41701 (Kcal/Mol)
 Warning -- explicit consideration of  17 degrees of freedom as
           vibrations may cause significant error
 Vibrational temperatures:     48.90    69.50   146.05   180.63   195.88
          (Kelvin)            271.41   398.52   411.97   568.29   584.46
                              606.49   663.89   680.36   735.49   748.76
                              754.10   821.86   901.85   929.58  1045.90
                             1053.76  1093.14  1111.66  1134.07  1198.04
                             1256.47  1288.87  1299.37  1380.15  1396.12
                             1428.76  1445.76  1450.11  1498.34  1520.78
                             1643.01  1670.20  1682.96  1733.73  1782.51
                             1852.18  1859.86  1957.59  1999.54  2020.16
                             2067.46  2137.90  2139.81  2142.48  2161.69
                             2247.55  2327.12  2405.53  2433.67  4565.48
                             4573.00  4579.90  4581.76  4590.64  4605.50
                             4606.44  4643.37  4716.79  5544.41  5600.87

 Zero-point correction=                           0.191897 (Hartree/Particle)
 Thermal correction to Energy=                    0.203616
 Thermal correction to Enthalpy=                  0.204560
 Thermal correction to Gibbs Free Energy=         0.152506
 Sum of electronic and zero-point Energies=           -575.667801
 Sum of electronic and thermal Energies=              -575.656082
 Sum of electronic and thermal Enthalpies=            -575.655137
 Sum of electronic and thermal Free Energies=         -575.707191

                     E (Thermal)             CV                S
                      KCal/Mol        Cal/Mol-Kelvin    Cal/Mol-Kelvin
 Total                  127.771             45.326            109.557
 Electronic               0.000              0.000              1.377
 Translational            0.889              2.981             41.387
 Rotational               0.889              2.981             31.385
 Vibrational            125.993             39.365             35.407
 Vibration     1          0.594              1.983              5.582
 Vibration     2          0.595              1.978              4.886
 Vibration     3          0.604              1.948              3.425
 Vibration     4          0.610              1.928              3.013
 Vibration     5          0.614              1.917              2.857
 Vibration     6          0.633              1.855              2.241
 Vibration     7          0.678              1.716              1.552
 Vibration     8          0.684              1.699              1.496
 Vibration     9          0.762              1.481              0.981
 Vibration    10          0.771              1.457              0.940
 Vibration    11          0.784              1.423              0.887
 Vibration    12          0.819              1.336              0.762
 Vibration    13          0.830              1.310              0.730
 Vibration    14          0.866              1.225              0.631
 Vibration    15          0.875              1.205              0.609
 Vibration    16          0.879              1.197              0.600
 Vibration    17          0.927              1.093              0.502

 Optimization completed.
    -- Stationary point found.
 Normal termination of Gaussian 16 at Thu Feb 21 16:03:52 2019.
