 Gaussian 16, Revision A.03,
 Gaussian 16:  EM64L-G16RevA.03 25-Dec-2016

 ----------------------------------------------------------------------
 #m062x/cc-pVTZ Opt=(calcfc,verytight,gdiis,maxcycles=900) freq IOP(2/1
 6=3) scf=(maxcycle=900)
 ----------------------------------------------------------------------

 -----
 Title
 -----
 Symbolic Z-matrix:
 Charge =  0 Multiplicity = 1

 SCF Done:  E(RM062X) =  -188.531010980     A.U. after   14 cycles
 SCF Done:  E(RM062X) =  -188.585782355     A.U. after   13 cycles
 SCF Done:  E(RM062X) =  -188.573654886     A.U. after   13 cycles
 SCF Done:  E(RM062X) =  -188.590906996     A.U. after   13 cycles
 SCF Done:  E(RM062X) =  -188.591520794     A.U. after    9 cycles
 SCF Done:  E(RM062X) =  -188.591596330     A.U. after    8 cycles
 SCF Done:  E(RM062X) =  -188.591596539     A.U. after    7 cycles
 SCF Done:  E(RM062X) =  -188.591596539     A.U. after    4 cycles
 Optimization completed.
    -- Stationary point found.
 Normal termination of Gaussian 16 at Tue Apr  2 09:13:11 2019.

 ----------------------------------------------------------------------
 #N Geom=AllCheck Guess=TCheck SCRF=Check Test GenChk RM062X/CC-pVTZ Fr
 eq
 ----------------------------------------------------------------------

 Structure from the checkpoint file:  "/scratch/dinius.ab/QMscratch/Gau-24177.chk"
 -----
 Title
 -----
 Charge =  0 Multiplicity = 1

                         Standard orientation:
 ---------------------------------------------------------------------
 Center     Atomic      Atomic             Coordinates (Angstroms)
 Number     Number       Type             X           Y           Z
 ---------------------------------------------------------------------
      1          8           0        0.000000    0.000000   -1.155295
      2          8           0       -0.000000   -0.000000    1.155295
      3          6           0        0.000000    0.000000   -0.000000
 ---------------------------------------------------------------------

 SCF Done:  E(RM062X) =  -188.591596539     A.U. after    1 cycles

 The electronic state is 1-SG.
 Alpha  occ. eigenvalues --  -19.71040 -19.71034 -10.73678  -1.29808  -1.24935
 Alpha  occ. eigenvalues --   -0.66396  -0.61384  -0.61179  -0.61179  -0.45152
 Alpha  occ. eigenvalues --   -0.45152
 Alpha virt. eigenvalues --    0.08457   0.08492   0.08492   0.26255   0.29112
 Alpha virt. eigenvalues --    0.29112   0.39847   0.54906   0.59167   0.59167
 Alpha virt. eigenvalues --    0.60313   0.62196   0.62196   0.79988   0.79988

 Mulliken charges:
               1
     1  O   -0.225849
     2  O   -0.225849
     3  C    0.451698
 Sum of Mulliken charges =   0.00000

 Dipole moment (field-independent basis, Debye):
    X=             -0.0000    Y=              0.0000    Z=             -0.0000  Tot=              0.0000
 Quadrupole moment (field-independent basis, Debye-Ang):
   XX=            -14.7001   YY=            -14.7001   ZZ=            -19.2051
   XY=             -0.0000   XZ=              0.0000   YZ=              0.0000

  Exact polarizability:   9.727   0.000   9.727  -0.000   0.000  23.181
 Approx polarizability:  11.155   0.000  11.155  -0.000  -0.000  33.863

                      1                      2                      3
                     PI                     PI                     SG
 Frequencies --    691.2703               691.2703              1412.4753
 Red. masses --     12.8774                12.8774                15.9949
 Frc consts  --      3.6255                 3.6255                18.8016
 IR Inten    --     38.3695                38.3695                 0.0000

                      4
                     SG
 Frequencies --   2457.3420
 Red. masses --     12.8774
 Frc consts  --     45.8151
 IR Inten    --    764.2363

 - Thermochemistry -
 -------------------
 Temperature   298.150 Kelvin.  Pressure   1.00000 Atm.
 Atom     1 has atomic number  8 and mass  15.99491

 Molecular mass:    43.98983 amu.
 Principal axes and moments of inertia in atomic units:
                           1         2         3
     Eigenvalues --     0.00000 152.47394 152.47394
           X           -0.00000   0.38651   0.92229
           Y           -0.00000   0.92229  -0.38651
           Z            1.00000   0.00000   0.00000
 This molecule is a prolate symmetric top.
 Rotational symmetry number  1.
 Rotational temperature (Kelvin)      0.56806
 Rotational constant (GHZ):          11.836391
 Zero-point vibrational energy      31416.1 (Joules/Mol)
                                    7.50862 (Kcal/Mol)
 Vibrational temperatures:    994.58   994.58  2032.24  3535.57
          (Kelvin)

 Zero-point correction=                           0.011966 (Hartree/Particle)
 Thermal correction to Energy=                    0.014566
 Thermal correction to Enthalpy=                  0.015510
 Thermal correction to Gibbs Free Energy=        -0.009365
 Sum of electronic and zero-point Energies=           -188.579631
 Sum of electronic and thermal Energies=              -188.577031
 Sum of electronic and thermal Enthalpies=            -188.576087
 Sum of electronic and thermal Free Energies=         -188.600962

                     E (Thermal)             CV                S
                      KCal/Mol        Cal/Mol-Kelvin    Cal/Mol-Kelvin
 Total                    9.140              6.763             52.354
 Electronic               0.000              0.000              0.000
 Translational            0.889              2.981             37.270
 Rotational               0.592              1.987             14.433
 Vibrational              7.659              1.795              0.650

 Optimization completed.
    -- Stationary point found.
 Normal termination of Gaussian 16 at Tue Apr  2 09:13:19 2019.
