 Gaussian 16, Revision A.03,
 Gaussian 16:  EM64L-G16RevA.03 25-Dec-2016

 ----------------------------------------------------------------------
 #m062x/cc-pVTZ Opt=(calcfc,verytight,gdiis,maxcycles=900) freq IOP(2/1
 6=3) scf=(maxcycle=900)
 ----------------------------------------------------------------------

 -----
 Title
 -----
 Symbolic Z-matrix:
 Charge =  0 Multiplicity = 1

 SCF Done:  E(RM062X) =  -154.558476888     A.U. after   18 cycles
 SCF Done:  E(RM062X) =  -154.593567490     A.U. after   14 cycles
 SCF Done:  E(RM062X) =  -154.623314627     A.U. after   14 cycles
 SCF Done:  E(RM062X) =  -154.557770984     A.U. after   15 cycles
 SCF Done:  E(RM062X) =  -154.663697341     A.U. after   14 cycles
 SCF Done:  E(RM062X) =  -154.679092273     A.U. after   12 cycles
 SCF Done:  E(RM062X) =  -154.686073913     A.U. after   14 cycles
 SCF Done:  E(RM062X) =  -154.690719916     A.U. after   12 cycles
 SCF Done:  E(RM062X) =  -154.691153170     A.U. after   11 cycles
 SCF Done:  E(RM062X) =  -154.691187789     A.U. after    9 cycles
 SCF Done:  E(RM062X) =  -154.691191877     A.U. after    8 cycles
 SCF Done:  E(RM062X) =  -154.691192958     A.U. after    7 cycles
 SCF Done:  E(RM062X) =  -154.691193128     A.U. after    6 cycles
 SCF Done:  E(RM062X) =  -154.691193134     A.U. after    5 cycles
 SCF Done:  E(RM062X) =  -154.691193134     A.U. after    2 cycles
 SCF Done:  E(RM062X) =  -154.691193134     A.U. after    3 cycles
 Optimization completed.
    -- Stationary point found.
 Normal termination of Gaussian 16 at Tue Apr  2 10:22:13 2019.

 ----------------------------------------------------------------------
 #N Geom=AllCheck Guess=TCheck SCRF=Check Test GenChk RM062X/CC-pVTZ Fr
 eq
 ----------------------------------------------------------------------

 Structure from the checkpoint file:  "/scratch/dinius.ab/QMscratch/Gau-15921.chk"
 -----
 Title
 -----
 Charge =  0 Multiplicity = 1

                         Standard orientation:
 ---------------------------------------------------------------------
 Center     Atomic      Atomic             Coordinates (Angstroms)
 Number     Number       Type             X           Y           Z
 ---------------------------------------------------------------------
      1          6           0       -0.655598   -1.014173   -0.000000
      2          6           0        0.655599   -1.014173   -0.000000
      3          1           0       -1.567894   -1.583380   -0.000000
      4          1           0        1.567895   -1.583378   -0.000000
      5          6           0       -0.000000    0.260515    0.000000
      6          6           0       -0.000001    1.583791    0.000000
      7          1           0        0.927721    2.135501    0.000000
      8          1           0       -0.927723    2.135500    0.000000
 ---------------------------------------------------------------------

 SCF Done:  E(RM062X) =  -154.691193134     A.U. after    1 cycles

 The electronic state is 1-A'.
 Alpha  occ. eigenvalues --  -10.58202 -10.58068 -10.56846 -10.50032  -1.01242
 Alpha  occ. eigenvalues --   -0.80260  -0.67191  -0.64094  -0.54548  -0.49058
 Alpha  occ. eigenvalues --   -0.45627  -0.43508  -0.36089  -0.26212
 Alpha virt. eigenvalues --    0.01808   0.09123   0.09672   0.09763   0.11701
 Alpha virt. eigenvalues --    0.13968   0.18884   0.22271   0.22956   0.25743
 Alpha virt. eigenvalues --    0.28332   0.30392   0.36279   0.37317   0.38277

 Mulliken charges:
               1
     1  C   -0.107859
     2  C   -0.107859
     3  H    0.137021
     4  H    0.137021
     5  C    0.130843
     6  C   -0.414052
     7  H    0.112442
     8  H    0.112442
 Sum of Mulliken charges =   0.00000

 Dipole moment (field-independent basis, Debye):
    X=              0.0000    Y=             -2.1117    Z=             -0.0000  Tot=              2.1117
 Quadrupole moment (field-independent basis, Debye-Ang):
   XX=            -20.3498   YY=            -22.7055   ZZ=            -26.5835
   XY=              0.0000   XZ=              0.0000   YZ=             -0.0000

  Exact polarizability:  41.728  -0.000  62.515  -0.000  -0.000  24.830
 Approx polarizability:  53.877  -0.000  72.116   0.000   0.000  31.993

                      1                      2                      3
                     A'                     A"                     A"
 Frequencies --    357.2599               443.3953               709.2658
 Red. masses --      2.2548                 2.5782                 1.5030
 Frc consts  --      0.1696                 0.2986                 0.4455
 IR Inten    --      3.3808                27.2366                33.0674

                      4                      5                      6
                     A"                     A"                     A'
 Frequencies --    719.4124               799.0316               855.1278
 Red. masses --      1.0872                 1.3191                 1.6888
 Frc consts  --      0.3315                 0.4962                 0.7276
 IR Inten    --      0.0000                78.9368                 0.1688

                      7                      8                      9
                     A'                     A"                     A'
 Frequencies --    885.6502               935.5368              1027.5668
 Red. masses --      1.6973                 1.4142                 1.7331
 Frc consts  --      0.7844                 0.7292                 1.0782
 IR Inten    --      7.2474                 0.0000                 9.1552

                     10                     11                     12
                     A'                     A'                     A'
 Frequencies --   1066.6124              1147.8071              1457.7758
 Red. masses --      1.5735                 2.7511                 1.1566
 Frc consts  --      1.0547                 2.1354                 1.4482
 IR Inten    --      6.7764                10.3910                 1.1543

                     13                     14                     15
                     A'                     A'                     A'
 Frequencies --   1637.3799              1864.1720              3186.4262
 Red. masses --      6.1773                 7.6117                 1.0558
 Frc consts  --      9.7577                15.5850                 6.3161
 IR Inten    --     29.2869               210.8000                 0.7896

                     16                     17                     18
                     A'                     A'                     A'
 Frequencies --   3273.5818              3275.9650              3318.1892
 Red. masses --      1.1015                 1.1038                 1.1436
 Frc consts  --      6.9545                 6.9794                 7.4185
 IR Inten    --      0.5093                 8.7430                 4.9431

 - Thermochemistry -
 -------------------
 Temperature   298.150 Kelvin.  Pressure   1.00000 Atm.
 Atom     1 has atomic number  6 and mass  12.00000

 Molecular mass:    52.03130 amu.
 Principal axes and moments of inertia in atomic units:
                           1         2         3
     Eigenvalues --    60.72701 249.34146 310.06848
           X           -0.00000   1.00000   0.00000
           Y            1.00000   0.00000   0.00000
           Z           -0.00000  -0.00000   1.00000
 This molecule is an asymmetric top.
 Rotational symmetry number  1.
 Rotational temperatures (Kelvin)      1.42628     0.34737     0.27934
 Rotational constants (GHZ):          29.71892     7.23803     5.82046
 Zero-point vibrational energy     161257.5 (Joules/Mol)
                                   38.54148 (Kcal/Mol)
 Warning -- explicit consideration of   2 degrees of freedom as
           vibrations may cause significant error
 Vibrational temperatures:    514.02   637.95  1020.48  1035.07  1149.63
          (Kelvin)           1230.34  1274.25  1346.03  1478.44  1534.62
                             1651.44  2097.41  2355.82  2682.13  4584.56
                             4709.95  4713.38  4774.13

 Zero-point correction=                           0.061420 (Hartree/Particle)
 Thermal correction to Energy=                    0.065428
 Thermal correction to Enthalpy=                  0.066372
 Thermal correction to Gibbs Free Energy=         0.035850
 Sum of electronic and zero-point Energies=           -154.629773
 Sum of electronic and thermal Energies=              -154.625765
 Sum of electronic and thermal Enthalpies=            -154.624821
 Sum of electronic and thermal Free Energies=         -154.655344

                     E (Thermal)             CV                S
                      KCal/Mol        Cal/Mol-Kelvin    Cal/Mol-Kelvin
 Total                   41.057             13.744             64.240
 Electronic               0.000              0.000              0.000
 Translational            0.889              2.981             37.771
 Rotational               0.889              2.981             23.067
 Vibrational             39.279              7.782              3.403
 Vibration     1          0.732              1.560              1.134
 Vibration     2          0.803              1.375              0.816

 Optimization completed.
    -- Stationary point found.
 Normal termination of Gaussian 16 at Tue Apr  2 10:22:59 2019.
