 Gaussian 16, Revision A.03,
 Gaussian 16:  EM64L-G16RevA.03 25-Dec-2016

 ----------------------------------------------------------------------
 #m062x/cc-pVTZ Opt=(calcfc,verytight,gdiis,maxcycles=900) freq IOP(2/1
 6=3) scf=(maxcycle=900)
 ----------------------------------------------------------------------

 -----
 Title
 -----
 Symbolic Z-matrix:
 Charge =  0 Multiplicity = 1

 SCF Done:  E(RM062X) =  -153.687415070     A.U. after   12 cycles
 SCF Done:  E(RM062X) =  -153.697119138     A.U. after   12 cycles
 SCF Done:  E(RM062X) =  -153.697549855     A.U. after    8 cycles
 SCF Done:  E(RM062X) =  -153.697602237     A.U. after    9 cycles
 SCF Done:  E(RM062X) =  -153.697603669     A.U. after    6 cycles
 SCF Done:  E(RM062X) =  -153.697603711     A.U. after    5 cycles
 SCF Done:  E(RM062X) =  -153.697603714     A.U. after    5 cycles
 SCF Done:  E(RM062X) =  -153.697603716     A.U. after    4 cycles
 Optimization completed.
    -- Stationary point found.
 Normal termination of Gaussian 16 at Tue Apr  2 09:39:12 2019.

 ----------------------------------------------------------------------
 #N Geom=AllCheck Guess=TCheck SCRF=Check Test GenChk RM062X/CC-pVTZ Fr
 eq
 ----------------------------------------------------------------------

 Structure from the checkpoint file:  "/scratch/dinius.ab/QMscratch/Gau-48800.chk"
 -----
 Title
 -----
 Charge =  0 Multiplicity = 1

                         Standard orientation:
 ---------------------------------------------------------------------
 Center     Atomic      Atomic             Coordinates (Angstroms)
 Number     Number       Type             X           Y           Z
 ---------------------------------------------------------------------
      1          6           0       -1.174025   -0.147443    0.000000
      2          8           0       -0.000000    0.391601    0.000000
      3          1           0       -1.996574    0.541388    0.000000
      4          1           0       -1.261418   -1.223137   -0.000001
      5          6           0        1.174025   -0.147443   -0.000000
      6          1           0        1.996574    0.541388    0.000000
      7          1           0        1.261418   -1.223137    0.000001
 ---------------------------------------------------------------------

 SCF Done:  E(RM062X) =  -153.697603716     A.U. after    1 cycles

 The electronic state is 1-A.
 Alpha  occ. eigenvalues --  -19.74771 -10.57772 -10.57768  -1.27503  -0.87003
 Alpha  occ. eigenvalues --   -0.68937  -0.61593  -0.59604  -0.55270  -0.48718
 Alpha  occ. eigenvalues --   -0.41973  -0.22178
 Alpha virt. eigenvalues --   -0.00381   0.08722   0.11929   0.13538   0.15664
 Alpha virt. eigenvalues --    0.16277   0.25936   0.32409   0.33453   0.36149
 Alpha virt. eigenvalues --    0.36911   0.38896   0.40655   0.45080   0.50223

 Mulliken charges:
               1
     1  C   -0.222216
     2  O    0.008603
     3  H    0.122610
     4  H    0.095304
     5  C   -0.222215
     6  H    0.122610
     7  H    0.095304
 Sum of Mulliken charges =  -0.00000

 Dipole moment (field-independent basis, Debye):
    X=              0.0000    Y=             -0.5567    Z=              0.0000  Tot=              0.5567
 Quadrupole moment (field-independent basis, Debye-Ang):
   XX=            -17.0430   YY=            -17.5126   ZZ=            -21.4185
   XY=             -0.0000   XZ=              0.0000   YZ=             -0.0000

  Exact polarizability:  70.025  -0.000  25.057  -0.000  -0.000  20.719
 Approx polarizability: 100.944  -0.000  28.673  -0.000   0.000  24.753

                      1                      2                      3
                      A                      A                      A
 Frequencies --    440.7148               472.8449               547.2486
 Red. masses --      2.2630                 1.2943                 1.1531
 Frc consts  --      0.2590                 0.1705                 0.2035
 IR Inten    --      0.9871                 0.0000               200.2619

                      4                      5                      6
                      A                      A                      A
 Frequencies --    579.6140               707.1819              1164.8990
 Red. masses --      1.0190                 1.9457                 1.2427
 Frc consts  --      0.2017                 0.5733                 0.9935
 IR Inten    --      0.0000                 0.5650                32.0707

                      7                      8                      9
                      A                      A                      A
 Frequencies --   1170.4073              1289.4463              1469.1815
 Red. masses --      2.3767                 1.7974                 1.6250
 Frc consts  --      1.9182                 1.7608                 2.0666
 IR Inten    --      2.7462                37.8444               228.5305

                     10                     11                     12
                      A                      A                      A
 Frequencies --   1499.5423              1533.0782              3181.1499
 Red. masses --      2.3796                 1.2831                 1.0410
 Frc consts  --      3.1526                 1.7768                 6.2071
 IR Inten    --    254.5897                 0.1277                23.4655

                     13                     14                     15
                      A                      A                      A
 Frequencies --   3192.6648              3351.2350              3353.7410
 Red. masses --      1.0487                 1.1251                 1.1271
 Frc consts  --      6.2981                 7.4447                 7.4692
 IR Inten    --      8.5829                 0.7563                 4.3400

 - Thermochemistry -
 -------------------
 Temperature   298.150 Kelvin.  Pressure   1.00000 Atm.
 Atom     1 has atomic number  6 and mass  12.00000

 Molecular mass:    44.02621 amu.
 Principal axes and moments of inertia in atomic units:
                           1         2         3
     Eigenvalues --    23.35289 158.27777 181.63066
           X            1.00000   0.00000   0.00000
           Y           -0.00000   1.00000  -0.00000
           Z           -0.00000   0.00000   1.00000
 This molecule is an asymmetric top.
 Rotational symmetry number  1.
 Rotational temperatures (Kelvin)      3.70892     0.54723     0.47687
 Rotational constants (GHZ):          77.28127    11.40237     9.93632
 Zero-point vibrational energy     143270.5 (Joules/Mol)
                                   34.24246 (Kcal/Mol)
 Warning -- explicit consideration of   4 degrees of freedom as
           vibrations may cause significant error
 Vibrational temperatures:    634.09   680.32   787.37   833.94  1017.48
          (Kelvin)           1676.03  1683.96  1855.23  2113.82  2157.51
                             2205.76  4576.97  4593.53  4821.68  4825.29

 Zero-point correction=                           0.054569 (Hartree/Particle)
 Thermal correction to Energy=                    0.058456
 Thermal correction to Enthalpy=                  0.059400
 Thermal correction to Gibbs Free Energy=         0.030202
 Sum of electronic and zero-point Energies=           -153.643035
 Sum of electronic and thermal Energies=              -153.639148
 Sum of electronic and thermal Enthalpies=            -153.638204
 Sum of electronic and thermal Free Energies=         -153.667402

                     E (Thermal)             CV                S
                      KCal/Mol        Cal/Mol-Kelvin    Cal/Mol-Kelvin
 Total                   36.681             12.523             61.453
 Electronic               0.000              0.000              0.000
 Translational            0.889              2.981             37.273
 Rotational               0.889              2.981             21.134
 Vibrational             34.904              6.561              3.046
 Vibration     1          0.801              1.381              0.824
 Vibration     2          0.830              1.310              0.730
 Vibration     3          0.902              1.146              0.550
 Vibration     4          0.936              1.075              0.486

 Optimization completed.
    -- Stationary point found.
 Normal termination of Gaussian 16 at Tue Apr  2 09:39:52 2019.
