 Gaussian 16, Revision A.03,
 Gaussian 16:  EM64L-G16RevA.03 25-Dec-2016

 ----------------------------------------------------------------------
 #m062x/6-311+g(2df,2p) Opt=(ModRedun,Loose,maxcycle=1000) Int(Grid=SG1
 ) freq
 ----------------------------------------------------------------------

 -----
 Title
 -----
 Symbolic Z-matrix:
 Charge =  0 Multiplicity = 1

 SCF Done:  E(RM062X) =  -576.427695459     A.U. after   22 cycles
 SCF Done:  E(RM062X) =  -576.466158262     A.U. after   17 cycles
 SCF Done:  E(RM062X) =  -576.491711233     A.U. after   17 cycles
 SCF Done:  E(RM062X) =  -576.514423750     A.U. after   16 cycles
 SCF Done:  E(RM062X) =  -576.522254797     A.U. after   15 cycles
 SCF Done:  E(RM062X) =  -576.522575996     A.U. after   11 cycles
 SCF Done:  E(RM062X) =  -576.537244158     A.U. after   18 cycles
 SCF Done:  E(RM062X) =  -576.543778909     A.U. after   18 cycles
 SCF Done:  E(RM062X) =  -576.553823496     A.U. after   18 cycles
 SCF Done:  E(RM062X) =  -576.560971793     A.U. after   16 cycles
 SCF Done:  E(RM062X) =  -576.613349963     A.U. after   13 cycles
 SCF Done:  E(RM062X) =  -576.613443805     A.U. after   13 cycles
 SCF Done:  E(RM062X) =  -576.613867715     A.U. after   13 cycles
 SCF Done:  E(RM062X) =  -576.614225430     A.U. after   11 cycles
 SCF Done:  E(RM062X) =  -576.614374228     A.U. after   12 cycles
 SCF Done:  E(RM062X) =  -576.614455228     A.U. after   11 cycles
 SCF Done:  E(RM062X) =  -576.614501859     A.U. after   11 cycles
 SCF Done:  E(RM062X) =  -576.614509808     A.U. after   11 cycles
 SCF Done:  E(RM062X) =  -576.614512935     A.U. after   10 cycles
 Optimization completed.
    -- Stationary point found.
 Normal termination of Gaussian 16 at Fri Jan 18 14:47:54 2019.

 ----------------------------------------------------------------------
 #N Geom=AllCheck Guess=TCheck SCRF=Check GenChk RM062X/6-311+G(2df,2p)
  Freq
 ----------------------------------------------------------------------

 Structure from the checkpoint file:  "/scratch/dinius.ab/QMscratch/Gau-45427.chk"
 -----
 Title
 -----
 Charge =  0 Multiplicity = 1

                         Standard orientation:
 ---------------------------------------------------------------------
 Center     Atomic      Atomic             Coordinates (Angstroms)
 Number     Number       Type             X           Y           Z
 ---------------------------------------------------------------------
      1          6           0        2.688573   -1.848566   -0.073693
      2          6           0        3.477778   -0.651138   -0.273805
      3          6           0        1.370319   -1.768382    0.172564
      4          1           0        3.178017   -2.811396   -0.114167
      5          6           0        2.908018    0.564630   -0.223557
      6          1           0        4.539168   -0.746543   -0.457614
      7          6           0        1.485798    0.724482    0.010896
      8          1           0        3.498497    1.461337   -0.364146
      9          6           0        0.686061   -0.490185    0.222168
     10          1           0        0.777777   -2.661211    0.327117
     11          6           0       -0.615736   -0.399560    0.583652
     12          6           0        0.925573    1.947473    0.166371
     13          6           0       -0.509426    2.145246    0.312361
     14          1           0        1.561337    2.822566    0.212832
     15          6           0       -1.356310    0.855530    0.548629
     16          1           0       -0.830356    3.041965    0.821821
     17          1           0       -1.144161   -1.278131    0.930758
     18          1           0       -2.210517    0.929259    1.206374
     19          6           0       -1.447754    1.638763   -0.740512
     20          1           0       -2.344122    2.220762   -0.895848
     21          1           0       -2.754004   -0.173911   -0.868260
     22          1           0       -1.003187    1.204782   -1.626445
     23          8           0       -3.391121   -1.071542   -0.930255
     24          8           0       -3.652851   -1.326999    0.442181
     25          1           0       -4.594033   -1.130906    0.501734
 ---------------------------------------------------------------------

 SCF Done:  E(RM062X) =  -576.614512935     A.U. after    1 cycles

 The electronic state is 1-A.
 Alpha  occ. eigenvalues --  -19.68323 -19.68091 -10.57129 -10.57049 -10.55924
 Alpha  occ. eigenvalues --  -10.55045 -10.54897 -10.54683 -10.54428 -10.54143
 Alpha  occ. eigenvalues --  -10.54017 -10.53955 -10.53815  -1.24818  -1.00639
 Alpha  occ. eigenvalues --   -0.98747  -0.95447  -0.87798  -0.87514  -0.81738
 Alpha  occ. eigenvalues --   -0.75321  -0.71117  -0.68898  -0.66964  -0.60662
 Alpha  occ. eigenvalues --   -0.60557  -0.59873  -0.58525  -0.56761  -0.54164
 Alpha  occ. eigenvalues --   -0.52580  -0.50729  -0.50645  -0.48742  -0.47526
 Alpha  occ. eigenvalues --   -0.46282  -0.45255  -0.44319  -0.41875  -0.40086
 Alpha  occ. eigenvalues --   -0.39516  -0.38942  -0.38074  -0.36088  -0.33374
 Alpha  occ. eigenvalues --   -0.31986  -0.23466
 Alpha virt. eigenvalues --   -0.03917   0.00422   0.01605   0.02012   0.02172
 Alpha virt. eigenvalues --    0.03421   0.03929   0.04126   0.04860   0.05223
 Alpha virt. eigenvalues --    0.05424   0.06033   0.06694   0.07136   0.08347

 Mulliken charges:
               1
     1  C   -0.323437
     2  C   -0.287881
     3  C   -0.165530
     4  H    0.149751
     5  C   -0.293848
     6  H    0.150063
     7  C    0.384281
     8  H    0.152305
     9  C    0.538160
    10  H    0.158486
    11  C   -0.082188
    12  C   -0.235282
    13  C   -0.080138
    14  H    0.155810
    15  C   -0.624017
    16  H    0.150596
    17  H    0.214826
    18  H    0.221281
    19  C   -0.701770
    20  H    0.194240
    21  H    0.385980
    22  H    0.226623
    23  O   -0.332711
    24  O   -0.205403
    25  H    0.249802
 Sum of Mulliken charges =  -0.00000

 Dipole moment (field-independent basis, Debye):
    X=             -0.8594    Y=              2.4265    Z=              0.6244  Tot=              2.6489
 Quadrupole moment (field-independent basis, Debye-Ang):
   XX=            -66.5101   YY=            -73.4198   ZZ=            -81.7233
   XY=             -6.1213   XZ=             -5.2654   YZ=             -1.2700

  Exact polarizability: 179.959 -14.512 151.643  -9.189  -2.744  91.364
 Approx polarizability: 217.670 -13.166 205.607 -15.402  -3.671 128.340

                      1                      2                      3
                      A                      A                      A
 Frequencies --     38.8049                64.6696               115.9881
 Red. masses --      5.4580                 5.1353                 6.9327
 Frc consts  --      0.0048                 0.0127                 0.0550
 IR Inten    --      0.1186                 0.2698                 0.8570

                      4                      5                      6
                      A                      A                      A
 Frequencies --    119.1994               136.5671               150.8929
 Red. masses --      6.1903                 3.6049                 3.7155
 Frc consts  --      0.0518                 0.0396                 0.0498
 IR Inten    --      8.2951                 0.6305                 0.4300

                      7                      8                      9
                      A                      A                      A
 Frequencies --    235.3128               262.0293               280.0219
 Red. masses --      3.4869                 3.3890                 1.2358
 Frc consts  --      0.1138                 0.1371                 0.0571
 IR Inten    --      3.0838                 2.7947               121.6188

                     10                     11                     12
                      A                      A                      A
 Frequencies --    335.0430               392.0832               420.8049
 Red. masses --      3.8870                 2.9374                 2.2331
 Frc consts  --      0.2571                 0.2661                 0.2330
 IR Inten    --      0.6307                 0.0872                10.4228

                     13                     14                     15
                      A                      A                      A
 Frequencies --    454.0814               461.9916               540.3524
 Red. masses --      3.0614                 5.6659                 3.5155
 Frc consts  --      0.3719                 0.7125                 0.6048
 IR Inten    --      8.5993                 5.9025                 0.6150

                     16                     17                     18
                      A                      A                      A
 Frequencies --    564.0116               605.2232               696.7806
 Red. masses --      3.0985                 6.4526                 3.1846
 Frc consts  --      0.5807                 1.3926                 0.9110
 IR Inten    --      1.0952                 9.3556                14.3116

                     19                     20                     21
                      A                      A                      A
 Frequencies --    699.5566               737.9152               754.4205
 Red. masses --      3.1753                 3.1372                 1.6959
 Frc consts  --      0.9156                 1.0065                 0.5687
 IR Inten    --      9.2941                 9.3727                 9.6398

                     22                     23                     24
                      A                      A                      A
 Frequencies --    757.8012               827.3971               848.2563
 Red. masses --      2.8539                 1.7133                 1.9859
 Frc consts  --      0.9656                 0.6911                 0.8419
 IR Inten    --      0.0057                 3.1802                 8.1469

                     25                     26                     27
                      A                      A                      A
 Frequencies --    864.5608               898.6446               913.7343
 Red. masses --      1.3399                 1.6996                 3.0850
 Frc consts  --      0.5901                 0.8087                 1.5175
 IR Inten    --     51.5982                 5.9405                 6.5440

                     28                     29                     30
                      A                      A                      A
 Frequencies --    929.8672               993.1607               998.9093
 Red. masses --      1.8174                 1.9662                 1.8370
 Frc consts  --      0.9259                 1.1426                 1.0800
 IR Inten    --     17.4549                14.1525                 9.1303

                     31                     32                     33
                      A                      A                      A
 Frequencies --   1004.4215              1014.4945              1024.4419
 Red. masses --      1.6233                 2.0010                 1.3325
 Frc consts  --      0.9649                 1.2134                 0.8240
 IR Inten    --     10.3946                 7.1087                 0.2056

                     34                     35                     36
                      A                      A                      A
 Frequencies --   1042.8008              1063.1217              1085.8423
 Red. masses --      8.7869                 1.4368                 1.3891
 Frc consts  --      5.6297                 0.9568                 0.9650
 IR Inten    --      8.0340                 7.6133                 7.9641

                     37                     38                     39
                      A                      A                      A
 Frequencies --   1113.7296              1144.7712              1160.7487
 Red. masses --      1.3745                 1.3205                 1.1047
 Frc consts  --      1.0045                 1.0196                 0.8770
 IR Inten    --      4.2877                 0.6291                94.8673

                     40                     41                     42
                      A                      A                      A
 Frequencies --   1182.8941              1189.5171              1225.2575
 Red. masses --      1.3161                 1.1216                 1.8276
 Frc consts  --      1.0850                 0.9350                 1.6165
 IR Inten    --      8.2528                 0.9387                 4.5656

                     43                     44                     45
                      A                      A                      A
 Frequencies --   1235.5745              1239.2238              1309.6146
 Red. masses --      1.6844                 1.7056                 1.4120
 Frc consts  --      1.5150                 1.5432                 1.4269
 IR Inten    --      4.7213                 2.7477                 5.4342

                     46                     47                     48
                      A                      A                      A
 Frequencies --   1403.4087              1414.0582              1416.4040
 Red. masses --      1.7931                 1.1193                 1.5811
 Frc consts  --      2.0808                 1.3187                 1.8689
 IR Inten    --      1.5761                57.4376                 1.4900

                     49                     50                     51
                      A                      A                      A
 Frequencies --   1427.4102              1441.6738              1459.9206
 Red. masses --      1.8461                 2.4435                 1.2558
 Frc consts  --      2.2162                 2.9922                 1.5769
 IR Inten    --      5.9696                 1.5281                 4.0564

                     52                     53                     54
                      A                      A                      A
 Frequencies --   1484.4335              1601.8233              1625.3433
 Red. masses --      2.4979                 5.6853                 7.3111
 Frc consts  --      3.2430                 8.5947                11.3795
 IR Inten    --      0.0702                 3.0818                 4.4253

                     55                     56                     57
                      A                      A                      A
 Frequencies --   1659.5553              1676.3432              1730.0898
 Red. masses --      1.0694                 6.3111                 6.6028
 Frc consts  --      1.7354                10.4492                11.6443
 IR Inten    --     31.3536                 1.9015                 0.8737

                     58                     59                     60
                      A                      A                      A
 Frequencies --   2275.4243              3110.4709              3138.0096
 Red. masses --      1.0713                 1.0525                 1.0894
 Frc consts  --      3.2681                 5.9999                 6.3203
 IR Inten    --    384.2604                 3.3806                 2.1503

                     61                     62                     63
                      A                      A                      A
 Frequencies --   3147.0294              3164.2425              3167.4401
 Red. masses --      1.0907                 1.0892                 1.0890
 Frc consts  --      6.3642                 6.4252                 6.4371
 IR Inten    --      1.4054                 2.1808                 7.1106

                     64                     65                     66
                      A                      A                      A
 Frequencies --   3172.9904              3173.3302              3182.1845
 Red. masses --      1.0918                 1.0943                 1.0934
 Frc consts  --      6.4763                 6.4927                 6.5233
 IR Inten    --      1.6030                11.4890                11.5502

                     67                     68                     69
                      A                      A                      A
 Frequencies --   3205.8131              3209.4635              3894.4236
 Red. masses --      1.0947                 1.1183                 1.0684
 Frc consts  --      6.6287                 6.7872                 9.5468
 IR Inten    --     11.3882                 0.8005                56.8888

 - Thermochemistry -
 -------------------
 Temperature   298.150 Kelvin.  Pressure   1.00000 Atm.
 Atom     1 has atomic number  6 and mass  12.00000

 Molecular mass:   176.08373 amu.
 Principal axes and moments of inertia in atomic units:
                           1         2         3
     Eigenvalues --  1340.455733509.290794540.79393
           X            0.99989  -0.01427  -0.00404
           Y            0.01424   0.99987  -0.00701
           Z            0.00414   0.00695   0.99997
 This molecule is an asymmetric top.
 Rotational symmetry number  1.
 Warning -- assumption of classical behavior for rotation
           may cause significant error
 Rotational temperatures (Kelvin)      0.06462     0.02468     0.01907
 Rotational constants (GHZ):           1.34636     0.51428     0.39745
 Zero-point vibrational energy     534227.2 (Joules/Mol)
                                  127.68338 (Kcal/Mol)
 Warning -- explicit consideration of  17 degrees of freedom as
           vibrations may cause significant error
 Vibrational temperatures:     55.83    93.05   166.88   171.50   196.49
          (Kelvin)            217.10   338.56   377.00   402.89   482.05
                              564.12   605.44   653.32   664.70   777.45
                              811.49   870.78  1002.51  1006.51  1061.70
                             1085.44  1090.31  1190.44  1220.45  1243.91
                             1292.95  1314.66  1337.87  1428.94  1437.21
                             1445.14  1459.63  1473.94  1500.36  1529.60
                             1562.28  1602.41  1647.07  1670.06  1701.92
                             1711.45  1762.87  1777.72  1782.97  1884.24
                             2019.19  2034.51  2037.89  2053.72  2074.25
                             2100.50  2135.77  2304.67  2338.51  2387.73
                             2411.88  2489.21  3273.83  4475.27  4514.90
                             4527.87  4552.64  4557.24  4565.23  4565.71
                             4578.45  4612.45  4617.70  5603.21

 Zero-point correction=                           0.203476 (Hartree/Particle)
 Thermal correction to Energy=                    0.215479
 Thermal correction to Enthalpy=                  0.216423
 Thermal correction to Gibbs Free Energy=         0.164661
 Sum of electronic and zero-point Energies=           -576.411037
 Sum of electronic and thermal Energies=              -576.399034
 Sum of electronic and thermal Enthalpies=            -576.398090
 Sum of electronic and thermal Free Energies=         -576.449852

                     E (Thermal)             CV                S
                      KCal/Mol        Cal/Mol-Kelvin    Cal/Mol-Kelvin
 Total                  135.215             45.921            108.944
 Electronic               0.000              0.000              0.000
 Translational            0.889              2.981             41.405
 Rotational               0.889              2.981             31.436
 Vibrational            133.438             39.959             36.104
 Vibration     1          0.594              1.981              5.319
 Vibration     2          0.597              1.971              4.309
 Vibration     3          0.608              1.936              3.166
 Vibration     4          0.609              1.933              3.113
 Vibration     5          0.614              1.917              2.851
 Vibration     6          0.618              1.902              2.661
 Vibration     7          0.655              1.787              1.838
 Vibration     8          0.669              1.742              1.648
 Vibration     9          0.680              1.711              1.534
 Vibration    10          0.716              1.606              1.236
 Vibration    11          0.760              1.487              0.992
 Vibration    12          0.783              1.425              0.889
 Vibration    13          0.813              1.352              0.784
 Vibration    14          0.820              1.334              0.760
 Vibration    15          0.895              1.161              0.565
 Vibration    16          0.920              1.109              0.516
 Vibration    17          0.964              1.021              0.441

 Optimization completed.
    -- Stationary point found.
 Normal termination of Gaussian 16 at Fri Jan 18 20:30:43 2019.
