 Gaussian 16, Revision A.03,
 Gaussian 16:  EM64L-G16RevA.03 25-Dec-2016

 ----------------------------------------------------------------------
 #m062x/6-311+g(2df,2p) Opt=(ModRedun,Loose,maxcycle=1000) Int(Grid=SG1
 ) freq
 ----------------------------------------------------------------------

 -----
 Title
 -----
 Symbolic Z-matrix:
 Charge =  0 Multiplicity = 1

 SCF Done:  E(RM062X) =  -576.424087924     A.U. after   29 cycles
 SCF Done:  E(RM062X) =  -576.459430899     A.U. after   20 cycles
 SCF Done:  E(RM062X) =  -576.494688199     A.U. after   19 cycles
 SCF Done:  E(RM062X) =  -576.513705653     A.U. after   18 cycles
 SCF Done:  E(RM062X) =  -576.520502426     A.U. after   23 cycles
 SCF Done:  E(RM062X) =  -576.526161929     A.U. after   17 cycles
 SCF Done:  E(RM062X) =  -576.523655957     A.U. after   19 cycles
 SCF Done:  E(RM062X) =  -576.536249339     A.U. after   17 cycles
 SCF Done:  E(RM062X) =  -576.536670118     A.U. after   19 cycles
 SCF Done:  E(RM062X) =  -576.542531330     A.U. after   16 cycles
 SCF Done:  E(RM062X) =  -576.611968626     A.U. after   13 cycles
 SCF Done:  E(RM062X) =  -576.612527686     A.U. after   12 cycles
 SCF Done:  E(RM062X) =  -576.612736227     A.U. after   13 cycles
 SCF Done:  E(RM062X) =  -576.612917163     A.U. after   12 cycles
 SCF Done:  E(RM062X) =  -576.613014639     A.U. after   11 cycles
 SCF Done:  E(RM062X) =  -576.613091263     A.U. after   12 cycles
 SCF Done:  E(RM062X) =  -576.613121913     A.U. after   11 cycles
 SCF Done:  E(RM062X) =  -576.613137266     A.U. after   10 cycles
 SCF Done:  E(RM062X) =  -576.613145296     A.U. after   10 cycles
 Optimization completed.
    -- Stationary point found.
 Normal termination of Gaussian 16 at Tue Feb  5 12:21:32 2019.

 ----------------------------------------------------------------------
 #N Geom=AllCheck Guess=TCheck SCRF=Check GenChk RM062X/6-311+G(2df,2p)
  Freq
 ----------------------------------------------------------------------

 Structure from the checkpoint file:  "/scratch/dinius.ab/QMscratch/Gau-14675.chk"
 -----
 Title
 -----
 Charge =  0 Multiplicity = 1

                         Standard orientation:
 ---------------------------------------------------------------------
 Center     Atomic      Atomic             Coordinates (Angstroms)
 Number     Number       Type             X           Y           Z
 ---------------------------------------------------------------------
      1          6           0       -2.763497   -1.845772    0.022438
      2          6           0       -3.479146   -0.690550    0.522097
      3          6           0       -1.499807   -1.731747   -0.419719
      4          1           0       -3.263310   -2.803854    0.004986
      5          6           0       -2.894157    0.518752    0.556661
      6          1           0       -4.497337   -0.811944    0.864210
      7          6           0       -1.524369    0.709984    0.120787
      8          1           0       -3.431013    1.383951    0.923151
      9          6           0       -0.800179   -0.461743   -0.390575
     10          1           0       -0.964171   -2.592794   -0.798586
     11          6           0        0.427295   -0.316189   -0.946096
     12          6           0       -0.967562    1.943884    0.050434
     13          6           0        0.431298    2.161494   -0.283182
     14          1           0       -1.588378    2.815620    0.217616
     15          6           0        1.198128    0.914473   -0.835330
     16          1           0        0.693871    3.121906   -0.701802
     17          1           0        0.861120   -1.131901   -1.511193
     18          1           0        1.948236    1.089903   -1.592528
     19          6           0        1.502153    1.495751    0.524638
     20          1           0        2.433727    2.031677    0.620489
     21          1           0        2.629207   -0.405857    0.267904
     22          1           0        1.177670    0.939663    1.393420
     23          8           0        3.184588   -1.354709    0.185541
     24          8           0        4.512420   -0.954805    0.491871
     25          1           0        4.643381   -1.350286    1.360120
 ---------------------------------------------------------------------

 SCF Done:  E(RM062X) =  -576.613145296     A.U. after    1 cycles

 The electronic state is 1-A.
 Alpha  occ. eigenvalues --  -19.67930 -19.67435 -10.57469 -10.57326 -10.56063
 Alpha  occ. eigenvalues --  -10.55385 -10.55334 -10.55047 -10.54895 -10.54445
 Alpha  occ. eigenvalues --  -10.54358 -10.54236 -10.54157  -1.24253  -1.00965
 Alpha  occ. eigenvalues --   -0.98280  -0.95755  -0.88147  -0.87836  -0.82081
 Alpha  occ. eigenvalues --   -0.75639  -0.71423  -0.69198  -0.67261  -0.60792
 Alpha  occ. eigenvalues --   -0.60365  -0.59988  -0.58644  -0.56423  -0.54406
 Alpha  occ. eigenvalues --   -0.53007  -0.50986  -0.50278  -0.49097  -0.47900
 Alpha  occ. eigenvalues --   -0.46568  -0.45614  -0.44597  -0.41934  -0.40409
 Alpha  occ. eigenvalues --   -0.39883  -0.38766  -0.38082  -0.35715  -0.33729
 Alpha  occ. eigenvalues --   -0.32194  -0.23848
 Alpha virt. eigenvalues --   -0.04246   0.00550   0.01619   0.01920   0.02019
 Alpha virt. eigenvalues --    0.03376   0.03606   0.03936   0.04840   0.05075
 Alpha virt. eigenvalues --    0.05626   0.06321   0.06339   0.07044   0.07402

 Mulliken charges:
               1
     1  C   -0.352184
     2  C   -0.292340
     3  C   -0.223427
     4  H    0.149815
     5  C   -0.252862
     6  H    0.149752
     7  C    0.408963
     8  H    0.153433
     9  C    0.276797
    10  H    0.158278
    11  C   -0.098523
    12  C   -0.098979
    13  C   -0.134479
    14  H    0.156957
    15  C   -0.346746
    16  H    0.152355
    17  H    0.193492
    18  H    0.197566
    19  C   -0.691103
    20  H    0.197927
    21  H    0.385753
    22  H    0.222146
    23  O   -0.351849
    24  O   -0.211171
    25  H    0.250430
 Sum of Mulliken charges =  -0.00000

 Dipole moment (field-independent basis, Debye):
    X=             -0.6749    Y=              1.7650    Z=              1.1671  Tot=              2.2210
 Quadrupole moment (field-independent basis, Debye-Ang):
   XX=            -78.6108   YY=            -71.6792   ZZ=            -76.9127
   XY=              4.2955   XZ=              3.7351   YZ=             -1.4130

  Exact polarizability: 181.914  17.191 149.737 -13.086   6.189  94.290
 Approx polarizability: 216.492  18.325 203.799 -22.480  10.871 132.048

                      1                      2                      3
                      A                      A                      A
 Frequencies --     39.2298                61.2240                94.2985
 Red. masses --      6.3490                 4.7565                 7.1310
 Frc consts  --      0.0058                 0.0105                 0.0374
 IR Inten    --      0.0877                 0.9958                 0.4505

                      4                      5                      6
                      A                      A                      A
 Frequencies --    112.5039               144.4306               158.2534
 Red. masses --      5.8058                 3.6391                 3.7242
 Frc consts  --      0.0433                 0.0447                 0.0550
 IR Inten    --      7.0013                 1.5453                 0.7354

                      7                      8                      9
                      A                      A                      A
 Frequencies --    221.4061               259.9994               336.3553
 Red. masses --      6.0184                 3.3958                 3.8995
 Frc consts  --      0.1738                 0.1352                 0.2599
 IR Inten    --      0.1859                 2.5276                 1.7855

                     10                     11                     12
                      A                      A                      A
 Frequencies --    394.7755               399.9217               417.8843
 Red. masses --      1.1024                 2.8696                 2.2188
 Frc consts  --      0.1012                 0.2704                 0.2283
 IR Inten    --    118.2362                 3.4628                10.1456

                     13                     14                     15
                      A                      A                      A
 Frequencies --    455.4321               465.0639               543.7502
 Red. masses --      3.1976                 5.9206                 3.6109
 Frc consts  --      0.3908                 0.7545                 0.6290
 IR Inten    --      7.9544                 5.3592                 0.6521

                     16                     17                     18
                      A                      A                      A
 Frequencies --    568.2929               604.0221               693.3030
 Red. masses --      3.1646                 6.4924                 3.8699
 Frc consts  --      0.6022                 1.3956                 1.0960
 IR Inten    --      0.8540                10.0759                19.5664

                     19                     20                     21
                      A                      A                      A
 Frequencies --    707.0395               740.0074               757.6289
 Red. masses --      3.3440                 4.0380                 2.8480
 Frc consts  --      0.9849                 1.3028                 0.9632
 IR Inten    --      0.6111                 8.3096                 0.0868

                     22                     23                     24
                      A                      A                      A
 Frequencies --    769.0692               829.8109               856.5082
 Red. masses --      1.3801                 1.9173                 1.7826
 Frc consts  --      0.4810                 0.7778                 0.7705
 IR Inten    --      9.6826                 1.7955                 8.2158

                     25                     26                     27
                      A                      A                      A
 Frequencies --    870.3656               899.1623               915.6880
 Red. masses --      1.3867                 1.7426                 3.2989
 Frc consts  --      0.6189                 0.8301                 1.6297
 IR Inten    --     71.2216                 3.9793                 7.1829

                     28                     29                     30
                      A                      A                      A
 Frequencies --    930.1058              1001.7864              1015.6955
 Red. masses --      1.6849                 2.4707                 2.0422
 Frc consts  --      0.8588                 1.4609                 1.2413
 IR Inten    --      9.2697                14.4620                 8.0600

                     31                     32                     33
                      A                      A                      A
 Frequencies --   1018.6119              1023.5835              1039.2527
 Red. masses --      1.6776                 1.4729                 1.3036
 Frc consts  --      1.0255                 0.9092                 0.8295
 IR Inten    --      8.8084                 6.3786                 0.1012

                     34                     35                     36
                      A                      A                      A
 Frequencies --   1043.5231              1082.3636              1092.7843
 Red. masses --     10.8983                 1.2972                 1.4486
 Frc consts  --      6.9922                 0.8954                 1.0192
 IR Inten    --     12.9060                15.3062                 3.1723

                     37                     38                     39
                      A                      A                      A
 Frequencies --   1117.6325              1153.5094              1168.3146
 Red. masses --      1.3224                 1.2225                 1.1088
 Frc consts  --      0.9732                 0.9584                 0.8917
 IR Inten    --     13.9504                 0.7856                49.3842

                     40                     41                     42
                      A                      A                      A
 Frequencies --   1186.7418              1194.5965              1222.2491
 Red. masses --      1.4138                 1.1112                 1.7613
 Frc consts  --      1.1731                 0.9343                 1.5502
 IR Inten    --      5.6378                 0.0727                 0.4200

                     43                     44                     45
                      A                      A                      A
 Frequencies --   1234.3731              1239.8946              1301.3564
 Red. masses --      1.6280                 1.6968                 1.4231
 Frc consts  --      1.4615                 1.5369                 1.4200
 IR Inten    --      7.1775                 0.3473                 3.8888

                     46                     47                     48
                      A                      A                      A
 Frequencies --   1395.8237              1414.1866              1418.8781
 Red. masses --      1.9407                 1.1110                 1.5990
 Frc consts  --      2.2277                 1.3091                 1.8967
 IR Inten    --      0.2133                55.5662                 2.6697

                     49                     50                     51
                      A                      A                      A
 Frequencies --   1429.3071              1438.2145              1470.4093
 Red. masses --      1.8533                 2.6079                 1.2837
 Frc consts  --      2.2308                 3.1782                 1.6353
 IR Inten    --      4.5277                 2.2849                 5.3413

                     52                     53                     54
                      A                      A                      A
 Frequencies --   1485.7579              1595.3802              1622.1573
 Red. masses --      2.2082                 5.4884                 7.4661
 Frc consts  --      2.8720                 8.2304                11.5752
 IR Inten    --      0.2652                 1.1581                 3.9889

                     55                     56                     57
                      A                      A                      A
 Frequencies --   1646.0152              1673.8791              1727.9621
 Red. masses --      1.0691                 6.3314                 6.4135
 Frc consts  --      1.7066                10.4520                11.2827
 IR Inten    --    101.4162                 3.2997                 0.7758

                     58                     59                     60
                      A                      A                      A
 Frequencies --   2288.8940              3142.3982              3151.7385
 Red. masses --      1.0736                 1.0522                 1.0899
 Frc consts  --      3.3140                 6.1219                 6.3785
 IR Inten    --    394.8660                 3.5884                 0.6577

                     61                     62                     63
                      A                      A                      A
 Frequencies --   3157.3346              3161.6059              3169.5521
 Red. masses --      1.0891                 1.0901                 1.0910
 Frc consts  --      6.3968                 6.4197                 6.4578
 IR Inten    --      2.5107                 1.7337                 3.6308

                     64                     65                     66
                      A                      A                      A
 Frequencies --   3170.5166              3176.0886              3198.4862
 Red. masses --      1.0888                 1.0923                 1.0938
 Frc consts  --      6.4484                 6.4923                 6.5931
 IR Inten    --      2.6843                 9.8363                14.3122

                     67                     68                     69
                      A                      A                      A
 Frequencies --   3216.1709              3241.5928              3917.7371
 Red. masses --      1.0955                 1.1201                 1.0684
 Frc consts  --      6.6763                 6.9343                 9.6621
 IR Inten    --     11.3175                 0.2517                48.6783

 - Thermochemistry -
 -------------------
 Temperature   298.150 Kelvin.  Pressure   1.00000 Atm.
 Atom     1 has atomic number  6 and mass  12.00000

 Molecular mass:   176.08373 amu.
 Principal axes and moments of inertia in atomic units:
                           1         2         3
     Eigenvalues --  1332.934363879.498194849.14461
           X            0.99994   0.01125  -0.00131
           Y           -0.01124   0.99992   0.00604
           Z            0.00138  -0.00602   0.99998
 This molecule is an asymmetric top.
 Rotational symmetry number  1.
 Warning -- assumption of classical behavior for rotation
           may cause significant error
 Rotational temperatures (Kelvin)      0.06498     0.02233     0.01786
 Rotational constants (GHZ):           1.35396     0.46520     0.37218
 Zero-point vibrational energy     536476.6 (Joules/Mol)
                                  128.22099 (Kcal/Mol)
 Warning -- explicit consideration of  17 degrees of freedom as
           vibrations may cause significant error
 Vibrational temperatures:     56.44    88.09   135.67   161.87   207.80
          (Kelvin)            227.69   318.55   374.08   483.94   567.99
                              575.40   601.24   655.27   669.12   782.34
                              817.65   869.05   997.51  1017.27  1064.71
                             1090.06  1106.52  1193.91  1232.32  1252.26
                             1293.69  1317.47  1338.21  1441.35  1461.36
                             1465.56  1472.71  1495.25  1501.40  1557.28
                             1572.27  1608.02  1659.64  1680.94  1707.46
                             1718.76  1758.54  1775.99  1783.93  1872.36
                             2008.28  2034.70  2041.45  2056.45  2069.27
                             2115.59  2137.67  2295.40  2333.92  2368.25
                             2408.34  2486.15  3293.21  4521.21  4534.65
                             4542.70  4548.85  4560.28  4561.67  4569.68
                             4601.91  4627.35  4663.93  5636.75

 Zero-point correction=                           0.204333 (Hartree/Particle)
 Thermal correction to Energy=                    0.216222
 Thermal correction to Enthalpy=                  0.217166
 Thermal correction to Gibbs Free Energy=         0.165396
 Sum of electronic and zero-point Energies=           -576.408812
 Sum of electronic and thermal Energies=              -576.396923
 Sum of electronic and thermal Enthalpies=            -576.395979
 Sum of electronic and thermal Free Energies=         -576.447749

                     E (Thermal)             CV                S
                      KCal/Mol        Cal/Mol-Kelvin    Cal/Mol-Kelvin
 Total                  135.682             45.519            108.959
 Electronic               0.000              0.000              0.000
 Translational            0.889              2.981             41.405
 Rotational               0.889              2.981             31.595
 Vibrational            133.904             39.557             35.960
 Vibration     1          0.594              1.981              5.298
 Vibration     2          0.597              1.973              4.417
 Vibration     3          0.603              1.953              3.569
 Vibration     4          0.607              1.939              3.225
 Vibration     5          0.616              1.909              2.744
 Vibration     6          0.621              1.893              2.571
 Vibration     7          0.648              1.808              1.948
 Vibration     8          0.668              1.746              1.662
 Vibration     9          0.717              1.603              1.229
 Vibration    10          0.762              1.481              0.982
 Vibration    11          0.766              1.470              0.963
 Vibration    12          0.781              1.431              0.899
 Vibration    13          0.814              1.349              0.780
 Vibration    14          0.823              1.328              0.752
 Vibration    15          0.899              1.153              0.557
 Vibration    16          0.924              1.100              0.508
 Vibration    17          0.962              1.023              0.443

                           ! Non-Optimized Parameters !
 Normal termination of Gaussian 16 at Tue Feb  5 12:46:30 2019.
