 Gaussian 16, Revision A.03,
 Gaussian 16:  EM64L-G16RevA.03 25-Dec-2016

 ----------------------------------------------------------------------
 #m062x/6-311+g(2df,2p) Opt=(ModRedun,Loose,maxcycle=1000) Integral=NoX
 CTest Int(Grid=SG1) freq
 ----------------------------------------------------------------------

 -----
 Title
 -----
 Symbolic Z-matrix:
 Charge =  0 Multiplicity = 2

 SCF Done:  E(UM062X) =  -729.604214366     A.U. after   20 cycles
 SCF Done:  E(UM062X) =  -729.639598810     A.U. after   17 cycles
 SCF Done:  E(UM062X) =  -729.656331586     A.U. after   20 cycles
 SCF Done:  E(UM062X) =  -729.660540572     A.U. after   18 cycles
 SCF Done:  E(UM062X) =  -729.662738034     A.U. after   19 cycles
 SCF Done:  E(UM062X) =  -729.669836710     A.U. after   21 cycles
 SCF Done:  E(UM062X) =  -729.673627546     A.U. after   21 cycles
 SCF Done:  E(UM062X) =  -729.681801310     A.U. after   17 cycles
 SCF Done:  E(UM062X) =  -729.685008875     A.U. after   20 cycles
 SCF Done:  E(UM062X) =  -729.686772322     A.U. after   21 cycles
 SCF Done:  E(UM062X) =  -729.694599026     A.U. after   15 cycles
 SCF Done:  E(UM062X) =  -729.694624340     A.U. after   14 cycles
 SCF Done:  E(UM062X) =  -729.694619832     A.U. after   15 cycles
 SCF Done:  E(UM062X) =  -729.694633879     A.U. after   15 cycles
 SCF Done:  E(UM062X) =  -729.694636340     A.U. after   14 cycles
 SCF Done:  E(UM062X) =  -729.694623999     A.U. after   13 cycles
 SCF Done:  E(UM062X) =  -729.694608356     A.U. after   14 cycles
 SCF Done:  E(UM062X) =  -729.694616500     A.U. after   14 cycles
 SCF Done:  E(UM062X) =  -729.694619571     A.U. after   12 cycles
 Optimization completed.
    -- Stationary point found.

 The electronic state is 2-A.
 Alpha  occ. eigenvalues --  -19.73471 -19.69556 -10.56776 -10.56596 -10.56545
 Alpha  occ. eigenvalues --  -10.56419 -10.56122 -10.55833 -10.55470 -10.55410
 Alpha  occ. eigenvalues --  -10.55306 -10.55291 -10.55242 -10.55174 -10.55118
 Alpha  occ. eigenvalues --  -10.55012 -10.53817  -1.33242  -1.00653  -0.97527
 Alpha  occ. eigenvalues --   -0.96998  -0.92752  -0.89680  -0.86741  -0.85099
 Alpha  occ. eigenvalues --   -0.82591  -0.78763  -0.72343  -0.72018  -0.70064
 Alpha  occ. eigenvalues --   -0.67589  -0.64614  -0.61986  -0.60792  -0.58659
 Alpha  occ. eigenvalues --   -0.58486  -0.56148  -0.56090  -0.55114  -0.52086
 Alpha  occ. eigenvalues --   -0.51085  -0.50831  -0.50317  -0.49373  -0.48673
 Alpha  occ. eigenvalues --   -0.48348  -0.46624  -0.45724  -0.43887  -0.43029
 Alpha  occ. eigenvalues --   -0.42596  -0.40026  -0.39330  -0.39089  -0.37239
 Alpha  occ. eigenvalues --   -0.37100  -0.35291  -0.33313  -0.28503  -0.27813
 Alpha virt. eigenvalues --   -0.02876  -0.02428   0.00634   0.00825   0.01295
 Alpha virt. eigenvalues --    0.01463   0.02763   0.02943   0.03628   0.04424
 Alpha virt. eigenvalues --    0.04549   0.04795   0.05117   0.06303   0.06626

  Beta  occ. eigenvalues --  -19.72691 -19.68110 -10.56776 -10.56596 -10.56545
  Beta  occ. eigenvalues --  -10.56419 -10.56122 -10.55834 -10.55470 -10.55410
  Beta  occ. eigenvalues --  -10.55306 -10.55291 -10.55242 -10.55174 -10.55118
  Beta  occ. eigenvalues --  -10.55012 -10.53816  -1.29895  -1.00640  -0.97208
  Beta  occ. eigenvalues --   -0.92773  -0.92470  -0.89679  -0.86740  -0.85096
  Beta  occ. eigenvalues --   -0.82591  -0.78759  -0.72343  -0.72018  -0.70064
  Beta  occ. eigenvalues --   -0.67588  -0.62733  -0.61970  -0.60787  -0.58487
  Beta  occ. eigenvalues --   -0.56126  -0.55113  -0.53757  -0.52087  -0.51084
  Beta  occ. eigenvalues --   -0.50832  -0.50347  -0.49374  -0.48739  -0.48615
  Beta  occ. eigenvalues --   -0.47917  -0.46624  -0.45722  -0.43839  -0.43029
  Beta  occ. eigenvalues --   -0.42595  -0.40025  -0.39244  -0.39087  -0.35300
  Beta  occ. eigenvalues --   -0.34455  -0.33311  -0.28490  -0.27813
  Beta virt. eigenvalues --   -0.05367  -0.02870  -0.02423   0.00640   0.00839
  Beta virt. eigenvalues --    0.01305   0.01474   0.02778   0.02958   0.03656
  Beta virt. eigenvalues --    0.04446   0.04568   0.04823   0.05137   0.06313

 Mulliken charges and spin densities:
               1          2
     1  C   -0.496036   0.006524
     2  C    0.495573  -0.022364
     3  H    0.142162  -0.000122
     4  H    0.146380   0.000004
     5  H    0.167750  -0.003668
     6  C   -0.364847   0.000851
     7  C   -0.531696   0.000808
     8  C    0.332474   0.005382
     9  H    0.165250   0.000244
    10  C   -0.372282   0.007121
    11  H    0.165218   0.000088
    12  C    0.337600   0.004077
    13  H    0.173588   0.000077
    14  C   -0.573962   0.000829
    15  C    0.558125  -0.000744
    16  C   -0.434947   0.000922
    17  H    0.161513   0.000057
    18  C    0.423940  -0.001610
    19  H    0.157379   0.000005
    20  C   -0.024382  -0.000587
    21  C   -0.337115  -0.000781
    22  C   -0.567307  -0.000023
    23  H    0.173939   0.000004
    24  C   -0.432480  -0.000330
    25  H    0.149475   0.000000
    26  H    0.153600  -0.000001
    27  H    0.152920   0.000005
    28  O   -0.127969   0.729550
    29  O   -0.193713   0.287619
    30  H    0.399851  -0.013936
 Sum of Mulliken charges =  -0.00000   1.00000

 Dipole moment (field-independent basis, Debye):
    X=             -1.5123    Y=             -0.8264    Z=             -1.9957  Tot=              2.6368
 Quadrupole moment (field-independent basis, Debye-Ang):
   XX=            -92.9612   YY=            -89.0079   ZZ=           -110.9990
   XY=             -3.5943   XZ=            -10.2257   YZ=             -3.9873

 Normal termination of Gaussian 16 at Tue Nov 13 06:46:34 2018.

 ----------------------------------------------------------------------
 #N Geom=AllCheck Guess=TCheck SCRF=Check GenChk UM062X/6-311+G(2df,2p)
  Freq
 ----------------------------------------------------------------------

 Structure from the checkpoint file:  "/scratch/dinius.ab/QMscratch/Gau-16774.chk"
 -----
 Title
 -----
 Charge =  0 Multiplicity = 2

                         Standard orientation:
 ---------------------------------------------------------------------
 Center     Atomic      Atomic             Coordinates (Angstroms)
 Number     Number       Type             X           Y           Z
 ---------------------------------------------------------------------
      1          6           0        4.145506   -0.461247   -1.035728
      2          6           0        2.656362   -0.444973   -0.844805
      3          1           0        4.485527    0.429929   -1.557771
      4          1           0        4.459032   -1.337647   -1.600850
      5          1           0        4.647076   -0.489734   -0.067727
      6          6           0        1.929747    0.722096   -0.910340
      7          6           0        1.964785   -1.633750   -0.540463
      8          6           0        0.540465    0.750212   -0.672727
      9          1           0        2.433074    1.656442   -1.127551
     10          6           0        0.610296   -1.635338   -0.309928
     11          1           0        2.517077   -2.562563   -0.482479
     12          6           0       -0.145332   -0.446926   -0.367886
     13          1           0        0.129698   -2.572363   -0.073750
     14          6           0       -0.178918    1.991152   -0.720081
     15          6           0       -1.577337   -0.404120   -0.122774
     16          6           0       -1.503389    2.033194   -0.475575
     17          1           0        0.371395    2.893958   -0.951261
     18          6           0       -2.242190    0.841254   -0.172132
     19          1           0       -2.038912    2.972707   -0.503023
     20          6           0       -3.626845    0.903220    0.073021
     21          6           0       -2.339365   -1.553310    0.162388
     22          6           0       -3.690804   -1.471200    0.395261
     23          1           0       -1.865650   -2.522611    0.196179
     24          6           0       -4.344330   -0.231645    0.354262
     25          1           0       -4.252852   -2.369435    0.611019
     26          1           0       -4.116632    1.867573    0.037102
     27          1           0       -5.407697   -0.173761    0.540447
     28          8           0        3.289721    0.839785    2.058959
     29          8           0        2.169198    0.211402    2.279104
     30          1           0        1.775602    0.046295    1.400215
 ---------------------------------------------------------------------

 SCF Done:  E(UM062X) =  -729.694619571     A.U. after    1 cycles
