 Gaussian 16, Revision A.03,
 Gaussian 16:  EM64L-G16RevA.03 25-Dec-2016

 ----------------------------------------------------------------------
 #m062x/6-311+g(2df,2p) Opt=(ModRedun,Loose,maxcycle=1000) Int(Grid=SG1
 ) freq
 ----------------------------------------------------------------------

 -----
 Title
 -----
 Symbolic Z-matrix:
 Charge =  0 Multiplicity = 2

 SCF Done:  E(UM062X) =  -575.951561157     A.U. after   20 cycles
 SCF Done:  E(UM062X) =  -575.983116307     A.U. after   17 cycles
 SCF Done:  E(UM062X) =  -576.002238959     A.U. after   16 cycles
 SCF Done:  E(UM062X) =  -576.014805956     A.U. after   17 cycles
 SCF Done:  E(UM062X) =  -576.021709232     A.U. after   17 cycles
 SCF Done:  E(UM062X) =  -576.024924134     A.U. after   17 cycles
 SCF Done:  E(UM062X) =  -576.024972224     A.U. after   10 cycles
 SCF Done:  E(UM062X) =  -576.025385339     A.U. after   15 cycles
 SCF Done:  E(UM062X) =  -576.025415242     A.U. after    9 cycles
 SCF Done:  E(UM062X) =  -576.026442377     A.U. after   15 cycles
 SCF Done:  E(UM062X) =  -576.049126756     A.U. after   14 cycles
 SCF Done:  E(UM062X) =  -576.049162142     A.U. after   15 cycles
 SCF Done:  E(UM062X) =  -576.049163020     A.U. after   15 cycles
 SCF Done:  E(UM062X) =  -576.049192407     A.U. after   13 cycles
 SCF Done:  E(UM062X) =  -576.049210755     A.U. after   13 cycles
 SCF Done:  E(UM062X) =  -576.049193888     A.U. after   13 cycles
 SCF Done:  E(UM062X) =  -576.049209954     A.U. after   13 cycles
 SCF Done:  E(UM062X) =  -576.049210817     A.U. after   12 cycles
 SCF Done:  E(UM062X) =  -576.049212085     A.U. after   12 cycles
 Optimization completed.
    -- Stationary point found.
 Normal termination of Gaussian 16 at Tue Feb  5 16:47:22 2019.

 ----------------------------------------------------------------------
 #N Geom=AllCheck Guess=TCheck SCRF=Check GenChk UM062X/6-311+G(2df,2p)
  Freq
 ----------------------------------------------------------------------

 Structure from the checkpoint file:  "/scratch/dinius.ab/QMscratch/Gau-20670.chk"
 -----
 Title
 -----
 Charge =  0 Multiplicity = 2

                         Standard orientation:
 ---------------------------------------------------------------------
 Center     Atomic      Atomic             Coordinates (Angstroms)
 Number     Number       Type             X           Y           Z
 ---------------------------------------------------------------------
      1          6           0       -2.695210   -1.517209   -0.210182
      2          6           0       -3.292359   -0.307866   -0.605269
      3          6           0       -1.408111   -1.534371    0.266193
      4          1           0       -3.251704   -2.440821   -0.280262
      5          6           0       -0.655355   -0.350093    0.376366
      6          1           0       -0.973326   -2.477015    0.562539
      7          6           0       -2.586302    0.859866   -0.509075
      8          1           0       -4.304125   -0.303965   -0.985798
      9          6           0       -1.260549    0.869363   -0.017271
     10          1           0       -3.031937    1.799422   -0.809206
     11          6           0        0.713319   -0.333623    0.871577
     12          6           0       -0.536879    2.087533    0.082939
     13          6           0        1.366404    0.915654    0.963617
     14          6           0        0.749734    2.100374    0.571417
     15          1           0       -1.017176    3.005437   -0.227877
     16          1           0        2.381022    0.937588    1.339898
     17          1           0        1.288328    3.034294    0.650580
     18          6           0        1.403470   -1.485396    1.226561
     19          1           0        2.433719   -1.403630    1.547190
     20          1           0        0.979053   -2.474219    1.188486
     21          1           0        3.020065   -1.147536   -0.112086
     22          8           0        3.558723   -0.591980   -0.716296
     23          8           0        2.622701   -0.271432   -1.729897
     24          1           0        2.235722    0.552339   -1.405154
 ---------------------------------------------------------------------

 SCF Done:  E(UM062X) =  -576.049212085     A.U. after    1 cycles

 The electronic state is 2-A.
 Alpha  occ. eigenvalues --  -19.67010 -19.66977 -10.57325 -10.56935 -10.56569
 Alpha  occ. eigenvalues --  -10.56306 -10.56247 -10.56238 -10.55810 -10.55630
 Alpha  occ. eigenvalues --  -10.55584 -10.55488 -10.55400  -1.24950  -1.00212
 Alpha  occ. eigenvalues --   -0.99586  -0.94709  -0.90900  -0.85656  -0.84886
 Alpha  occ. eigenvalues --   -0.78678  -0.72270  -0.71427  -0.67345  -0.62203
 Alpha  occ. eigenvalues --   -0.60864  -0.60013  -0.58580  -0.56252  -0.54313
 Alpha  occ. eigenvalues --   -0.52807  -0.51034  -0.50652  -0.50072  -0.48767
 Alpha  occ. eigenvalues --   -0.48459  -0.46954  -0.45346  -0.42234  -0.40773
 Alpha  occ. eigenvalues --   -0.40579  -0.38915  -0.37214  -0.37166  -0.32154
 Alpha  occ. eigenvalues --   -0.31425  -0.24041
 Alpha virt. eigenvalues --   -0.02504  -0.00464   0.00555   0.01196   0.01598
 Alpha virt. eigenvalues --    0.02858   0.03043   0.03742   0.04496   0.05227
 Alpha virt. eigenvalues --    0.05591   0.05790   0.07104   0.07875   0.08080

  Beta  occ. eigenvalues --  -19.67001 -19.66938 -10.57464 -10.56856 -10.56624
  Beta  occ. eigenvalues --  -10.56066 -10.56036 -10.55902 -10.55889 -10.55596
  Beta  occ. eigenvalues --  -10.55578 -10.55493 -10.55420  -1.24877  -0.99983
  Beta  occ. eigenvalues --   -0.99502  -0.94439  -0.90343  -0.85465  -0.84513
  Beta  occ. eigenvalues --   -0.77233  -0.72096  -0.71236  -0.66880  -0.62054
  Beta  occ. eigenvalues --   -0.60510  -0.59849  -0.58306  -0.56085  -0.53995
  Beta  occ. eigenvalues --   -0.52488  -0.50749  -0.50479  -0.49815  -0.48145
  Beta  occ. eigenvalues --   -0.48074  -0.46657  -0.45089  -0.41277  -0.40675
  Beta  occ. eigenvalues --   -0.40388  -0.37296  -0.37074  -0.36661  -0.31332
  Beta  occ. eigenvalues --   -0.29609
  Beta virt. eigenvalues --   -0.08781  -0.01546   0.00195   0.00543   0.01206
  Beta virt. eigenvalues --    0.01611   0.02927   0.03081   0.03997   0.04535
  Beta virt. eigenvalues --    0.05080   0.05628   0.05823   0.06922   0.08011

 Mulliken charges and spin densities:
               1          2
     1  C   -0.507852   0.091638
     2  C   -0.405457  -0.051437
     3  C   -0.333518  -0.042693
     4  H    0.150628  -0.005348
     5  C    0.570995   0.193781
     6  H    0.165430   0.000979
     7  C    0.004699   0.100240
     8  H    0.152067   0.002853
     9  C    0.241526  -0.199679
    10  H    0.155898  -0.003158
    11  C    0.805195  -0.340594
    12  C   -0.073193   0.373318
    13  C   -0.570817   0.395252
    14  C   -0.517547  -0.162793
    15  H    0.166591  -0.021706
    16  H    0.195224  -0.026074
    17  H    0.162109   0.006486
    18  C   -0.756376   0.749327
    19  H    0.164453  -0.036070
    20  H    0.184896  -0.037380
    21  H    0.267996   0.001333
    22  O   -0.267660   0.008188
    23  O   -0.232717   0.006677
    24  H    0.277431  -0.003141
 Sum of Mulliken charges =  -0.00000   1.00000

 Dipole moment (field-independent basis, Debye):
    X=             -2.7423    Y=              0.6718    Z=              1.7379  Tot=              3.3154
 Quadrupole moment (field-independent basis, Debye-Ang):
   XX=            -81.0799   YY=            -66.4677   ZZ=            -84.2057
   XY=              2.4139   XZ=             11.2043   YZ=             -4.2144

  Exact polarizability: 183.289  -0.778 160.953  28.846 -10.008  95.853
 Approx polarizability: 223.233  -0.841 223.890  39.710 -15.846 130.673

                      1                      2                      3
                      A                      A                      A
 Frequencies --     23.9210                47.8176               108.2352
 Red. masses --      7.3682                 5.2736                 5.1241
 Frc consts  --      0.0025                 0.0071                 0.0354
 IR Inten    --      0.5079                 0.1915                 1.0723

                      4                      5                      6
                      A                      A                      A
 Frequencies --    113.5622               151.8018               185.0672
 Red. masses --      4.8093                 4.9145                 4.0947
 Frc consts  --      0.0365                 0.0667                 0.0826
 IR Inten    --      0.1400                 2.3911                 1.9109

                      7                      8                      9
                      A                      A                      A
 Frequencies --    219.9308               254.0792               326.4090
 Red. masses --      5.3295                 3.5792                 3.6617
 Frc consts  --      0.1519                 0.1361                 0.2299
 IR Inten    --      5.0396                 2.9947                 2.2589

                     10                     11                     12
                      A                      A                      A
 Frequencies --    410.6629               421.9757               450.5590
 Red. masses --      1.2297                 2.2062                 3.0236
 Frc consts  --      0.1222                 0.2315                 0.3616
 IR Inten    --     84.8018                42.1438                 0.6137

                     13                     14                     15
                      A                      A                      A
 Frequencies --    475.4060               479.7876               508.2015
 Red. masses --      2.8243                 6.3607                 5.4592
 Frc consts  --      0.3761                 0.8627                 0.8307
 IR Inten    --      9.3390                 0.4360                 0.9608

                     16                     17                     18
                      A                      A                      A
 Frequencies --    528.6073               581.7534               608.0614
 Red. masses --      2.1919                 6.1352                 1.3185
 Frc consts  --      0.3609                 1.2234                 0.2872
 IR Inten    --      6.5561                 2.7209                21.5829

                     19                     20                     21
                      A                      A                      A
 Frequencies --    651.1032               693.9227               729.0476
 Red. masses --      2.6678                 1.1881                 4.6796
 Frc consts  --      0.6663                 0.3371                 1.4655
 IR Inten    --     18.3279               214.4272                 4.9965

                     22                     23                     24
                      A                      A                      A
 Frequencies --    754.8582               799.0398               801.0027
 Red. masses --      1.3262                 2.7486                 2.0030
 Frc consts  --      0.4452                 1.0340                 0.7572
 IR Inten    --      2.0544                28.6706                42.1035

                     25                     26                     27
                      A                      A                      A
 Frequencies --    816.0617               848.0070               892.3031
 Red. masses --      1.7430                 1.4238                 4.0141
 Frc consts  --      0.6839                 0.6033                 1.8830
 IR Inten    --      1.8306                55.9842                 0.3424

                     28                     29                     30
                      A                      A                      A
 Frequencies --    899.6454               921.9217               984.5972
 Red. masses --      1.6185                 1.5205                 1.7579
 Frc consts  --      0.7718                 0.7614                 1.0040
 IR Inten    --      1.8967                 0.3421                 1.7618

                     31                     32                     33
                      A                      A                      A
 Frequencies --   1001.6519              1011.6452              1031.2765
 Red. masses --      1.3493                 1.3431                 1.3307
 Frc consts  --      0.7976                 0.8099                 0.8338
 IR Inten    --      1.1191                 0.4547                 0.0762

                     34                     35                     36
                      A                      A                      A
 Frequencies --   1048.2914              1058.2291              1102.5648
 Red. masses --     14.7558                 2.8489                 2.3607
 Frc consts  --      9.5538                 1.8797                 1.6908
 IR Inten    --      2.3028                 4.0290                 1.5433

                     37                     38                     39
                      A                      A                      A
 Frequencies --   1127.4774              1153.0982              1173.6187
 Red. masses --      1.8480                 1.9179                 1.3961
 Frc consts  --      1.3841                 1.5025                 1.1329
 IR Inten    --      1.3535                 3.9679                 3.4571

                     40                     41                     42
                      A                      A                      A
 Frequencies --   1198.3019              1222.6795              1255.8472
 Red. masses --      1.3352                 1.6074                 1.9239
 Frc consts  --      1.1296                 1.4158                 1.7877
 IR Inten    --      0.1167                 9.6967                 5.3485

                     43                     44                     45
                      A                      A                      A
 Frequencies --   1309.7889              1357.9541              1380.3539
 Red. masses --      1.8297                 2.8769                 4.2104
 Frc consts  --      1.8494                 3.1257                 4.7267
 IR Inten    --      2.0892                 2.1546                 3.0863

                     46                     47                     48
                      A                      A                      A
 Frequencies --   1426.7875              1431.9520              1479.1311
 Red. masses --      2.1880                 1.1103                 1.1852
 Frc consts  --      2.6243                 1.3413                 1.5278
 IR Inten    --      0.1851                29.3305                39.6558

                     49                     50                     51
                      A                      A                      A
 Frequencies --   1483.5076              1488.2949              1533.6435
 Red. masses --      2.1338                 1.8015                 1.5450
 Frc consts  --      2.7669                 2.3511                 2.1411
 IR Inten    --      3.0773                 3.5485                 3.1378

                     52                     53                     54
                      A                      A                      A
 Frequencies --   1543.8781              1594.9467              1620.8053
 Red. masses --      2.2926                 4.1949                 5.4524
 Frc consts  --      3.2196                 6.2873                 8.4392
 IR Inten    --     12.8930                 0.4592                 7.6771

                     55                     56                     57
                      A                      A                      A
 Frequencies --   1680.9314              3127.7882              3135.2391
 Red. masses --      5.6821                 1.0890                 1.0906
 Frc consts  --      9.4592                 6.2772                 6.3162
 IR Inten    --      1.8212                 0.6314                 3.3466

                     58                     59                     60
                      A                      A                      A
 Frequencies --   3144.9495              3174.7288              3181.5972
 Red. masses --      1.0586                 1.0897                 1.0912
 Frc consts  --      6.1687                 6.4709                 6.5079
 IR Inten    --      6.4711                 2.1390                 4.5535

                     61                     62                     63
                      A                      A                      A
 Frequencies --   3187.5469              3195.1432              3220.4840
 Red. masses --      1.0937                 1.0946                 1.0939
 Frc consts  --      6.5472                 6.5839                 6.6848
 IR Inten    --      4.9319                 6.3407                 2.7588

                     64                     65                     66
                      A                      A                      A
 Frequencies --   3258.7753              3609.9347              3852.9941
 Red. masses --      1.1105                 1.0663                 1.0683
 Frc consts  --      6.9484                 8.1870                 9.3446
 IR Inten    --      2.8938               192.6930                47.3761

 - Thermochemistry -
 -------------------
 Temperature   298.150 Kelvin.  Pressure   1.00000 Atm.
 Atom     1 has atomic number  6 and mass  12.00000

 Molecular mass:   175.07590 amu.
 Principal axes and moments of inertia in atomic units:
                           1         2         3
     Eigenvalues --  1391.993333244.576383788.63045
           X            0.99982   0.00310   0.01876
           Y           -0.00248   0.99945  -0.03297
           Z           -0.01885   0.03292   0.99928
 This molecule is an asymmetric top.
 Rotational symmetry number  1.
 Warning -- assumption of classical behavior for rotation
           may cause significant error
 Rotational temperatures (Kelvin)      0.06222     0.02669     0.02286
 Rotational constants (GHZ):           1.29652     0.55623     0.47636
 Zero-point vibrational energy     505381.5 (Joules/Mol)
                                  120.78907 (Kcal/Mol)
 Warning -- explicit consideration of  18 degrees of freedom as
           vibrations may cause significant error
 Vibrational temperatures:     34.42    68.80   155.73   163.39   218.41
          (Kelvin)            266.27   316.43   365.56   469.63   590.85
                              607.13   648.25   684.00   690.31   731.19
                              760.55   837.01   874.86   936.79   998.40
                             1048.94  1086.07  1149.64  1152.46  1174.13
                             1220.09  1283.83  1294.39  1326.44  1416.62
                             1441.15  1455.53  1483.78  1508.26  1522.56
                             1586.34  1622.19  1659.05  1688.58  1724.09
                             1759.16  1806.88  1884.49  1953.79  1986.02
                             2052.83  2060.26  2128.14  2134.44  2141.32
                             2206.57  2221.30  2294.77  2331.98  2418.49
                             4500.19  4510.91  4524.88  4567.73  4577.61
                             4586.17  4597.10  4633.56  4688.65  5193.89
                             5543.60

 Zero-point correction=                           0.192490 (Hartree/Particle)
 Thermal correction to Energy=                    0.204493
 Thermal correction to Enthalpy=                  0.205437
 Thermal correction to Gibbs Free Energy=         0.152633
 Sum of electronic and zero-point Energies=           -575.856722
 Sum of electronic and thermal Energies=              -575.844720
 Sum of electronic and thermal Enthalpies=            -575.843775
 Sum of electronic and thermal Free Energies=         -575.896579

                     E (Thermal)             CV                S
                      KCal/Mol        Cal/Mol-Kelvin    Cal/Mol-Kelvin
 Total                  128.321             46.109            111.135
 Electronic               0.000              0.000              1.377
 Translational            0.889              2.981             41.387
 Rotational               0.889              2.981             31.215
 Vibrational            126.544             40.147             37.155
 Vibration     1          0.593              1.985              6.279
 Vibration     2          0.595              1.978              4.906
 Vibration     3          0.606              1.943              3.300
 Vibration     4          0.607              1.938              3.207
 Vibration     5          0.619              1.901              2.650
 Vibration     6          0.631              1.860              2.277
 Vibration     7          0.647              1.811              1.960
 Vibration     8          0.665              1.756              1.702
 Vibration     9          0.710              1.623              1.278
 Vibration    10          0.775              1.447              0.924
 Vibration    11          0.784              1.422              0.885
 Vibration    12          0.809              1.360              0.794
 Vibration    13          0.832              1.305              0.723
 Vibration    14          0.836              1.295              0.711
 Vibration    15          0.863              1.232              0.638
 Vibration    16          0.884              1.187              0.590
 Vibration    17          0.939              1.071              0.482
 Vibration    18          0.967              1.015              0.436

 Optimization completed.
    -- Stationary point found.
 Normal termination of Gaussian 16 at Tue Feb  5 17:28:48 2019.
